 Entering Link 1 = C:\G09W\l1.exe PID=      4548.
  
 Copyright (c) 1988,1990,1992,1993,1995,1998,2003,2009,2010,
            Gaussian, Inc.  All Rights Reserved.
  
 This is part of the Gaussian(R) 09 program.  It is based on
 the Gaussian(R) 03 system (copyright 2003, Gaussian, Inc.),
 the Gaussian(R) 98 system (copyright 1998, Gaussian, Inc.),
 the Gaussian(R) 94 system (copyright 1995, Gaussian, Inc.),
 the Gaussian 92(TM) system (copyright 1992, Gaussian, Inc.),
 the Gaussian 90(TM) system (copyright 1990, Gaussian, Inc.),
 the Gaussian 88(TM) system (copyright 1988, Gaussian, Inc.),
 the Gaussian 86(TM) system (copyright 1986, Carnegie Mellon
 University), and the Gaussian 82(TM) system (copyright 1983,
 Carnegie Mellon University). Gaussian is a federally registered
 trademark of Gaussian, Inc.
  
 This software contains proprietary and confidential information,
 including trade secrets, belonging to Gaussian, Inc.
  
 This software is provided under written license and may be
 used, copied, transmitted, or stored only in accord with that
 written license.
  
 The following legend is applicable only to US Government
 contracts under FAR:
  
                    RESTRICTED RIGHTS LEGEND
  
 Use, reproduction and disclosure by the US Government is
 subject to restrictions as set forth in subparagraphs (a)
 and (c) of the Commercial Computer Software - Restricted
 Rights clause in FAR 52.227-19.
  
 Gaussian, Inc.
 340 Quinnipiac St., Bldg. 40, Wallingford CT 06492
  
  
 ---------------------------------------------------------------
 Warning -- This program may not be used in any manner that
 competes with the business of Gaussian, Inc. or will provide
 assistance to any competitor of Gaussian, Inc.  The licensee
 of this program is prohibited from giving any competitor of
 Gaussian, Inc. access to this program.  By using this program,
 the user acknowledges that Gaussian, Inc. is engaged in the
 business of creating and licensing software in the field of
 computational chemistry and represents and warrants to the
 licensee that it is not a competitor of Gaussian, Inc. and that
 it will not use this program in any manner prohibited above.
 ---------------------------------------------------------------
  

 Cite this work as:
 Gaussian 09, Revision B.01,
 M. J. Frisch, G. W. Trucks, H. B. Schlegel, G. E. Scuseria, 
 M. A. Robb, J. R. Cheeseman, G. Scalmani, V. Barone, B. Mennucci, 
 G. A. Petersson, H. Nakatsuji, M. Caricato, X. Li, H. P. Hratchian, 
 A. F. Izmaylov, J. Bloino, G. Zheng, J. L. Sonnenberg, M. Hada, 
 M. Ehara, K. Toyota, R. Fukuda, J. Hasegawa, M. Ishida, T. Nakajima, 
 Y. Honda, O. Kitao, H. Nakai, T. Vreven, J. A. Montgomery, Jr., 
 J. E. Peralta, F. Ogliaro, M. Bearpark, J. J. Heyd, E. Brothers, 
 K. N. Kudin, V. N. Staroverov, T. Keith, R. Kobayashi, J. Normand, 
 K. Raghavachari, A. Rendell, J. C. Burant, S. S. Iyengar, J. Tomasi, 
 M. Cossi, N. Rega, J. M. Millam, M. Klene, J. E. Knox, J. B. Cross, 
 V. Bakken, C. Adamo, J. Jaramillo, R. Gomperts, R. E. Stratmann, 
 O. Yazyev, A. J. Austin, R. Cammi, C. Pomelli, J. W. Ochterski, 
 R. L. Martin, K. Morokuma, V. G. Zakrzewski, G. A. Voth, 
 P. Salvador, J. J. Dannenberg, S. Dapprich, A. D. Daniels, 
 O. Farkas, J. B. Foresman, J. V. Ortiz, J. Cioslowski, 
 and D. J. Fox, Gaussian, Inc., Wallingford CT, 2010.
 
 ******************************************
 Gaussian 09:  IA32W-G09RevB.01 12-Aug-2010
                27-Nov-2023 
 ******************************************
 %chk=PH3-DIS-cc-pVTZ-cisd.chk
 %mem=6MW
 %nproc=1
 Will use up to    1 processors via shared memory.
 ------------------------------
 # scan rcisd/cc-pVTZ guess=mix
 ------------------------------
 1/38=1,60=1/1,8;
 2/12=2,17=6,18=5,29=3,40=1/2;
 3/5=16,6=1,11=1,16=1,25=1,30=1,116=1/1,2,3;
 4/13=-1/1;
 5/5=2,38=5/2;
 8/6=3,9=120000,10=1/1,4;
 9//13;
 6/7=2,8=2,9=2,10=2,18=1/1;
 1/60=1/8(1);
 99/9=1/99;
 2/29=3/2;
 3/5=16,6=1,11=1,16=1,25=1,30=1,116=1/1,2,3;
 4/5=5,16=3/1;
 5/5=2,38=5/2;
 8/6=3,9=120000,10=1/1,4;
 9//13;
 1/60=1/8(-6);
 99/9=1/99;
 --------------------
 PH3-DIS-cc-pVTZ-cisd
 --------------------
 Symbolic Z-matrix:
 Charge =  0 Multiplicity = 1
 P
 H                    1    B1
 H                    1    B1       2     93.3 
 H                    1    B1       3     93.3     2    -93.3     0
       Variables:
  B1                    2.5    Scan 17   -0.1    
 
 Scan the potential surface.
 Variable   Value     No. Steps Step-Size
 -------- ----------- --------- ---------
     1       2.500000      17     -0.1000
 A total of     18 points will be computed.
 ---------------------------------------------------------------------------------------------------
                            Z-MATRIX (ANGSTROMS AND DEGREES)
   CD    Cent   Atom    N1       Length/X        N2       Alpha/Y        N3        Beta/Z          J
 ---------------------------------------------------------------------------------------------------
      1      1  P 
      2      2  H        1   2.500000(     1)
      3      3  H        1   2.500000(     2)      2   93.300(     4)
      4      4  H        1   2.500000(     3)      3   93.300(     5)      2  -93.300(     6)      0
 ---------------------------------------------------------------------------------------------------
                         Z-Matrix orientation:                         
 ---------------------------------------------------------------------
 Center     Atomic      Atomic             Coordinates (Angstroms)
 Number     Number       Type             X           Y           Z
 ---------------------------------------------------------------------
      1         15           0        0.000000    0.000000    0.000000
      2          1           0        0.000000    0.000000    2.500000
      3          1           0        2.495855    0.000000   -0.143910
      4          1           0       -0.151942   -2.491716   -0.135149
 ---------------------------------------------------------------------
                    Distance matrix (angstroms):
                    1          2          3          4
     1  P    0.000000
     2  H    2.500000   0.000000
     3  H    2.500000   3.635870   0.000000
     4  H    2.500000   3.629841   3.635870   0.000000
 Stoichiometry    H3P
 Framework group  CS[SG(HP),X(H2)]
 Deg. of freedom     4
 Full point group                 CS      NOp   2
 Largest Abelian subgroup         CS      NOp   2
 Largest concise Abelian subgroup CS      NOp   2
                         Standard orientation:                         
 ---------------------------------------------------------------------
 Center     Atomic      Atomic             Coordinates (Angstroms)
 Number     Number       Type             X           Y           Z
 ---------------------------------------------------------------------
      1         15           0        0.000000    0.226590    0.000000
      2          1           0       -1.050163   -1.134740    1.814921
      3          1           0        2.100326   -1.129370    0.000000
      4          1           0       -1.050163   -1.134740   -1.814921
 ---------------------------------------------------------------------
 Rotational constants (GHZ):     43.0813558     42.9733106     37.9746071
 Standard basis: CC-pVTZ (5D, 7F)
 There are    47 symmetry adapted basis functions of A'  symmetry.
 There are    29 symmetry adapted basis functions of A"  symmetry.
 Integral buffers will be    262144 words long.
 Raffenetti 1 integral format.
 Two-electron integral symmetry is turned on.
    76 basis functions,   146 primitive gaussians,    84 cartesian basis functions
     9 alpha electrons        9 beta electrons
       nuclear repulsion energy         9.9620619682 Hartrees.
 NAtoms=    4 NActive=    4 NUniq=    3 SFac= 1.78D+00 NAtFMM=   50 NAOKFM=F Big=F
 One-electron integrals computed using PRISM.
 NBasis=    76 RedAO= T  NBF=    47    29
 NBsUse=    76 1.00D-06 NBFU=    47    29
 Harris functional with IExCor=  205 diagonalized for initial guess.
 ExpMin= 9.71D-02 ExpMax= 3.12D+05 ExpMxC= 9.87D+02 IAcc=2 IRadAn=         0 AccDes= 0.00D+00
 HarFok:  IExCor=  205 AccDes= 0.00D+00 IRadAn=         0 IDoV= 1
 ScaDFX=  1.000000  1.000000  1.000000  1.000000
 FoFCou: FMM=F IPFlag=           0 FMFlag=      100000 FMFlg1=           0
         NFxFlg=           0 DoJE=T BraDBF=F KetDBF=T FulRan=T
         Omega=  0.000000  0.000000  1.000000  0.000000  0.000000 ICntrl=     500 IOpCl=  0
         NMat0=    1 NMatS0=    1 NMatT0=    0 NMatD0=    1 NMtDS0=    0 NMtDT0=    0
         I1Cent=           4 NGrid=           0.
 Petite list used in FoFCou.
 Mixing orbitals, IMix= 1 IMixAn=  0 NRI=1 NE=    9 Coef=  7.07106781D-01  7.07106781D-01
 Initial guess orbital symmetries:
       Occupied  (A') (A') (A') (A") (A') (A') (A') (A") (A')
       Virtual   (A') (A") (A') (A') (A') (A") (A') (A') (A") (A')
                 (A') (A") (A") (A') (A') (A") (A') (A") (A') (A")
                 (A') (A") (A') (A') (A") (A') (A') (A") (A') (A')
                 (A") (A") (A') (A') (A') (A") (A') (A") (A') (A')
                 (A") (A') (A') (A") (A") (A') (A') (A') (A") (A")
                 (A") (A') (A') (A") (A') (A') (A') (A") (A") (A')
                 (A") (A") (A') (A') (A') (A") (A')
 The electronic state of the initial guess is 1-A'.
 Requested convergence on RMS density matrix=1.00D-08 within 128 cycles.
 Requested convergence on MAX density matrix=1.00D-06.
 Requested convergence on             energy=1.00D-06.
 No special actions if energy rises.
 Integral accuracy reduced to 1.0D-05 until final iterations.
 An orbital has undefined symmetry, so N**3 symmetry is turned off.
 Initial convergence to 1.0D-05 achieved.  Increase integral accuracy.
 SCF Done:  E(RHF) =  -342.075727950     A.U. after   14 cycles
             Convg  =    0.9571D-08             -V/T =  2.0028
 ExpMin= 9.71D-02 ExpMax= 3.12D+05 ExpMxC= 9.87D+02 IAcc=3 IRadAn=         5 AccDes= 0.00D+00
 HarFok:  IExCor=  205 AccDes= 0.00D+00 IRadAn=         5 IDoV=-2
 ScaDFX=  1.000000  1.000000  1.000000  1.000000
 Range of M.O.s used for correlation:     6    76
 NBasis=    76 NAE=     9 NBE=     9 NFC=     5 NFV=     0
 NROrb=     71 NOA=     4 NOB=     4 NVA=    67 NVB=    67
 Semi-Direct transformation.
 ModeAB=           2 MOrb=             4 LenV=       6002740
 LASXX=        86719 LTotXX=       86719 LenRXX=       86719
 LTotAB=       97384 MaxLAS=     1013880 LenRXY=     1013880
 NonZer=     1056480 LenScr=     2376192 LnRSAI=           0
 LnScr1=           0 LExtra=           0 Total=      3476791
 MaxDsk=          -1 SrtSym=           F ITran=            3
 JobTyp=0 Pass  1:  I=   1 to   4.
 (rs|ai) integrals will be sorted in core.
 SymMOI:  orbitals are not symmetric.
 Spin components of T(2) and E(2):
     alpha-alpha T2 =       0.1165257210D-01 E2=     -0.1549899694D-01
     alpha-beta  T2 =       0.1678094407D+00 E2=     -0.1917490320D+00
     beta-beta   T2 =       0.1165257210D-01 E2=     -0.1549899694D-01
 ANorm=    0.1091381961D+01
 E2 =    -0.2227470258D+00 EUMP2 =    -0.34229847497618D+03
 Would need an additional         8397051 words for in-memory AO integral storage.
 Iterations=  50 Convergence= 0.100D-06
 Iteration Nr.   1
 **********************
 DD1Dir will call FoFDir   1 times, MxPair=        20
 NAB=    10 NAA=     0 NBB=     0 NumPrc=  1.
 Integrals replicated using symmetry in FoFDir.
 MinBra= 0 MaxBra= 3 Meth= 1.
 IRaf=       0 NMat=  20 IRICut=      25 DoRegI=T DoRafI=T ISym2E= 2 JSym2E=2.
 E3=       -0.36342799D-01        EUMP3=      -0.34233481778D+03
 DE(CI)=     -0.21707375     E(CI)=       -342.29280170    
 NORM(A)=   0.10961533D+01
 Iteration Nr.   2
 **********************
 DD1Dir will call FoFDir   1 times, MxPair=        20
 NAB=    10 NAA=     0 NBB=     0 NumPrc=  1.
 DE(CI)=     -0.23282906     E(CI)=       -342.30855701    
 NORM(A)=   0.11238417D+01
 Iteration Nr.   3
 **********************
 DD1Dir will call FoFDir   1 times, MxPair=        20
 NAB=    10 NAA=     0 NBB=     0 NumPrc=  1.
 DE(CI)=     -0.23826775     E(CI)=       -342.31399570    
 NORM(A)=   0.11334898D+01
 Iteration Nr.   4
 **********************
 DD1Dir will call FoFDir   1 times, MxPair=        20
 NAB=    10 NAA=     0 NBB=     0 NumPrc=  1.
 DE(CI)=     -0.24018860     E(CI)=       -342.31591655    
 NORM(A)=   0.11346591D+01
 Iteration Nr.   5
 **********************
 DD1Dir will call FoFDir   1 times, MxPair=        20
 NAB=    10 NAA=     0 NBB=     0 NumPrc=  1.
 DE(CI)=     -0.24003434     E(CI)=       -342.31576229    
 NORM(A)=   0.11346858D+01
 Iteration Nr.   6
 **********************
 DD1Dir will call FoFDir   1 times, MxPair=        20
 NAB=    10 NAA=     0 NBB=     0 NumPrc=  1.
 DE(CI)=     -0.24006469     E(CI)=       -342.31579264    
 NORM(A)=   0.11352158D+01
 Iteration Nr.   7
 **********************
 DD1Dir will call FoFDir   1 times, MxPair=        20
 NAB=    10 NAA=     0 NBB=     0 NumPrc=  1.
 DE(CI)=     -0.24015696     E(CI)=       -342.31588491    
 NORM(A)=   0.11353258D+01
 Iteration Nr.   8
 **********************
 DD1Dir will call FoFDir   1 times, MxPair=        20
 NAB=    10 NAA=     0 NBB=     0 NumPrc=  1.
 DE(CI)=     -0.24014687     E(CI)=       -342.31587482    
 NORM(A)=   0.11352361D+01
 Iteration Nr.   9
 **********************
 DD1Dir will call FoFDir   1 times, MxPair=        20
 NAB=    10 NAA=     0 NBB=     0 NumPrc=  1.
 DE(CI)=     -0.24013021     E(CI)=       -342.31585816    
 NORM(A)=   0.11352145D+01
 Iteration Nr.  10
 **********************
 DD1Dir will call FoFDir   1 times, MxPair=        20
 NAB=    10 NAA=     0 NBB=     0 NumPrc=  1.
 DE(CI)=     -0.24012915     E(CI)=       -342.31585710    
 NORM(A)=   0.11352336D+01
 Iteration Nr.  11
 **********************
 DD1Dir will call FoFDir   1 times, MxPair=        20
 NAB=    10 NAA=     0 NBB=     0 NumPrc=  1.
 DE(CI)=     -0.24013478     E(CI)=       -342.31586274    
 NORM(A)=   0.11352401D+01
 Iteration Nr.  12
 **********************
 DD1Dir will call FoFDir   1 times, MxPair=        20
 NAB=    10 NAA=     0 NBB=     0 NumPrc=  1.
 DE(CI)=     -0.24013465     E(CI)=       -342.31586260    
 NORM(A)=   0.11352386D+01
 Iteration Nr.  13
 **********************
 DD1Dir will call FoFDir   1 times, MxPair=        20
 NAB=    10 NAA=     0 NBB=     0 NumPrc=  1.
 DE(CI)=     -0.24013433     E(CI)=       -342.31586228    
 NORM(A)=   0.11352369D+01
 Iteration Nr.  14
 **********************
 DD1Dir will call FoFDir   1 times, MxPair=        20
 NAB=    10 NAA=     0 NBB=     0 NumPrc=  1.
 DE(CI)=     -0.24013402     E(CI)=       -342.31586197    
 NORM(A)=   0.11352369D+01
 Iteration Nr.  15
 **********************
 DD1Dir will call FoFDir   1 times, MxPair=        20
 NAB=    10 NAA=     0 NBB=     0 NumPrc=  1.
 DE(CI)=     -0.24013406     E(CI)=       -342.31586201    
 NORM(A)=   0.11352371D+01
 ***************************************************************
 Dominant configurations:
 ***********************
 Spin Case        I    J    A    B          Value
   ABAB           7    7   12   12      -0.144561D+00
   ABAB           8    8   11   11      -0.146079D+00
   ABAB           9    9   10   10      -0.113841D+00
 Largest amplitude= 1.46D-01

 **********************************************************************

            Population analysis using the SCF density.

 **********************************************************************

 Orbital symmetries:
       Occupied  (A') (A') (A") (A') (A') (A') (A') (A") (A')
       Virtual   (A') (A") (A') (A') (A') (A") (A') (A') (A") (A')
                 (A') (A") (A") (A') (A') (A") (A') (A") (A') (A")
                 (A') (A") (A') (A') (A") (A') (A') (A") (A') (A')
                 (A") (A") (A') (A') (A') (A") (A') (A") (A') (A')
                 (A") (A') (A') (A") (A') (A") (A') (A") (A') (A")
                 (A") (A') (A') (A") (A') (A') (A') (A") (A") (A')
                 (A") (A") (A') (A') (A') (A") (A')
 The electronic state is 1-A'.
 Alpha  occ. eigenvalues --  -80.10635  -7.63021  -5.51945  -5.51945  -5.51907
 Alpha  occ. eigenvalues --   -0.76280  -0.37210  -0.37194  -0.36546
 Alpha virt. eigenvalues --   -0.03294  -0.02583  -0.02566   0.35411   0.36913
 Alpha virt. eigenvalues --    0.36914   0.38740   0.40889   0.40893   0.41472
 Alpha virt. eigenvalues --    0.42627   0.42635   0.51814   0.51834   0.52204
 Alpha virt. eigenvalues --    0.77667   0.79515   0.79524   0.82856   0.82862
 Alpha virt. eigenvalues --    0.84125   1.02871   1.02909   1.06592   1.48241
 Alpha virt. eigenvalues --    1.48243   1.49133   1.51229   1.51249   1.53891
 Alpha virt. eigenvalues --    1.54972   1.55825   1.55835   1.65512   1.75806
 Alpha virt. eigenvalues --    1.75830   2.16788   2.16936   2.16946   2.55639
 Alpha virt. eigenvalues --    2.63166   2.63177   3.10851   3.44709   3.44711
 Alpha virt. eigenvalues --    3.44711   3.44748   3.44786   3.44786   3.45212
 Alpha virt. eigenvalues --    3.45528   3.45529   3.48244   3.48264   3.48275
 Alpha virt. eigenvalues --    3.52093   3.55434   3.55442   3.87951   3.88948
 Alpha virt. eigenvalues --    3.88950   3.91411   3.91414   3.92641   4.17644
 Alpha virt. eigenvalues --    4.17937   4.17959
          Condensed to atoms (all electrons):
              1          2          3          4
     1  P   14.166744   0.223787   0.223765   0.223787
     2  H    0.223787   0.831607  -0.000720  -0.000742
     3  H    0.223765  -0.000720   0.831726  -0.000720
     4  H    0.223787  -0.000742  -0.000720   0.831607
 Mulliken atomic charges:
              1
     1  P    0.161917
     2  H   -0.053933
     3  H   -0.054051
     4  H   -0.053933
 Sum of Mulliken atomic charges =   0.00000
 Mulliken charges with hydrogens summed into heavy atoms:
              1
     1  P    0.000000
 Sum of Mulliken charges with hydrogens summed into heavy atoms =   0.00000
 Electronic spatial extent (au):  <R**2>=            105.0705
 Charge=              0.0000 electrons
 Dipole moment (field-independent basis, Debye):
    X=             -0.0011    Y=              1.2122    Z=              0.0000  Tot=              1.2122
 Quadrupole moment (field-independent basis, Debye-Ang):
   XX=            -18.6248   YY=            -18.4482   ZZ=            -18.6293
   XY=              0.0036   XZ=              0.0000   YZ=              0.0000
 Traceless Quadrupole moment (field-independent basis, Debye-Ang):
   XX=             -0.0573   YY=              0.1192   ZZ=             -0.0619
   XY=              0.0036   XZ=              0.0000   YZ=              0.0000
 Octapole moment (field-independent basis, Debye-Ang**2):
  XXX=              1.4668  YYY=              8.2301  ZZZ=              0.0000  XYY=             -0.0112
  XXY=              1.3908  XXZ=              0.0000  XZZ=             -1.4676  YZZ=              1.3958
  YYZ=              0.0000  XYZ=              0.0000
 Hexadecapole moment (field-independent basis, Debye-Ang**3):
 XXXX=            -86.2975 YYYY=            -68.8192 ZZZZ=            -86.1172 XXXY=             -4.6151
 XXXZ=              0.0000 YYYX=             -0.0214 YYYZ=              0.0000 ZZZX=              0.0000
 ZZZY=              0.0000 XXYY=            -22.7884 XXZZ=            -28.7324 YYZZ=            -22.7328
 XXYZ=              0.0000 YYXZ=              0.0000 ZZXY=              4.5565
 N-N= 9.962061968223D+00 E-N=-8.328556503997D+02  KE= 3.411137365782D+02
 Symmetry A'   KE= 3.101663867838D+02
 Symmetry A"   KE= 3.094734979448D+01
 Variable Step   Value    
 -------- ---- -----------
     1       1    4.535343
 ---------------------------------------------------------------------------------------------------
                            Z-MATRIX (ANGSTROMS AND DEGREES)
   CD    Cent   Atom    N1       Length/X        N2       Alpha/Y        N3        Beta/Z          J
 ---------------------------------------------------------------------------------------------------
      1      1  P 
      2      2  H        1   2.400000(     1)
      3      3  H        1   2.400000(     2)      2   93.300(     4)
      4      4  H        1   2.400000(     3)      3   93.300(     5)      2  -93.300(     6)      0
 ---------------------------------------------------------------------------------------------------
                         Z-Matrix orientation:                         
 ---------------------------------------------------------------------
 Center     Atomic      Atomic             Coordinates (Angstroms)
 Number     Number       Type             X           Y           Z
 ---------------------------------------------------------------------
      1         15           0        0.000000    0.000000    0.000000
      2          1           0        0.000000    0.000000    2.400000
      3          1           0        2.396020    0.000000   -0.138154
      4          1           0       -0.145864   -2.392047   -0.129743
 ---------------------------------------------------------------------
                    Distance matrix (angstroms):
                    1          2          3          4
     1  P    0.000000
     2  H    2.400000   0.000000
     3  H    2.400000   3.490435   0.000000
     4  H    2.400000   3.484647   3.490435   0.000000
 Stoichiometry    H3P
 Framework group  CS[SG(HP),X(H2)]
 Deg. of freedom     4
 Full point group                 CS      NOp   2
 Largest Abelian subgroup         CS      NOp   2
 Largest concise Abelian subgroup CS      NOp   2
                         Standard orientation:                         
 ---------------------------------------------------------------------
 Center     Atomic      Atomic             Coordinates (Angstroms)
 Number     Number       Type             X           Y           Z
 ---------------------------------------------------------------------
      1         15           0        0.000000    0.217526    0.000000
      2          1           0       -1.008157   -1.089351    1.742324
      3          1           0        2.016313   -1.084196    0.000000
      4          1           0       -1.008157   -1.089351   -1.742324
 ---------------------------------------------------------------------
 Rotational constants (GHZ):     46.7462628     46.6290262     41.2050859
 Standard basis: CC-pVTZ (5D, 7F)
 There are    47 symmetry adapted basis functions of A'  symmetry.
 There are    29 symmetry adapted basis functions of A"  symmetry.
 Integral buffers will be    262144 words long.
 Raffenetti 1 integral format.
 Two-electron integral symmetry is turned on.
    76 basis functions,   146 primitive gaussians,    84 cartesian basis functions
     9 alpha electrons        9 beta electrons
       nuclear repulsion energy        10.3771478836 Hartrees.
 NAtoms=    4 NActive=    4 NUniq=    3 SFac= 1.78D+00 NAtFMM=   50 NAOKFM=F Big=F
 One-electron integrals computed using PRISM.
 NBasis=    76 RedAO= T  NBF=    47    29
 NBsUse=    76 1.00D-06 NBFU=    47    29
 Initial guess read from the read-write file.
 B after Tr=     0.000000    0.000000    0.000000
         Rot=    1.000000    0.000000    0.000000    0.000000 Ang=   0.00 deg.
 Initial guess orbital symmetries:
       Occupied  (A') (A') (A") (A') (A') (A') (A') (A") (A')
       Virtual   (A') (A") (A') (A') (A') (A") (A') (A') (A") (A')
                 (A') (A") (A") (A') (A') (A") (A') (A") (A') (A")
                 (A') (A") (A') (A') (A") (A') (A') (A") (A') (A')
                 (A") (A") (A') (A') (A') (A") (A') (A") (A') (A')
                 (A") (A') (A') (A") (A') (A") (A') (A") (A') (A")
                 (A") (A') (A') (A") (A') (A') (A') (A") (A") (A')
                 (A") (A") (A') (A') (A') (A") (A')
 Harris functional with IExCor=  205 diagonalized for initial guess.
 ExpMin= 9.71D-02 ExpMax= 3.12D+05 ExpMxC= 9.87D+02 IAcc=2 IRadAn=         0 AccDes= 0.00D+00
 HarFok:  IExCor=  205 AccDes= 0.00D+00 IRadAn=         0 IDoV= 1
 ScaDFX=  1.000000  1.000000  1.000000  1.000000
 FoFCou: FMM=F IPFlag=           0 FMFlag=      100000 FMFlg1=           0
         NFxFlg=           0 DoJE=T BraDBF=F KetDBF=T FulRan=T
         Omega=  0.000000  0.000000  1.000000  0.000000  0.000000 ICntrl=     500 IOpCl=  0
         NMat0=    1 NMatS0=    1 NMatT0=    0 NMatD0=    1 NMtDS0=    0 NMtDT0=    0
         I1Cent=           4 NGrid=           0.
 Petite list used in FoFCou.
 Requested convergence on RMS density matrix=1.00D-08 within 128 cycles.
 Requested convergence on MAX density matrix=1.00D-06.
 Requested convergence on             energy=1.00D-06.
 No special actions if energy rises.
 Integral accuracy reduced to 1.0D-05 until final iterations.
 Initial convergence to 1.0D-05 achieved.  Increase integral accuracy.
 SCF Done:  E(RHF) =  -342.114169239     A.U. after   12 cycles
             Convg  =    0.3092D-08             -V/T =  2.0029
 ExpMin= 9.71D-02 ExpMax= 3.12D+05 ExpMxC= 9.87D+02 IAcc=3 IRadAn=         5 AccDes= 0.00D+00
 HarFok:  IExCor=  205 AccDes= 0.00D+00 IRadAn=         5 IDoV=-2
 ScaDFX=  1.000000  1.000000  1.000000  1.000000
 Range of M.O.s used for correlation:     6    76
 NBasis=    76 NAE=     9 NBE=     9 NFC=     5 NFV=     0
 NROrb=     71 NOA=     4 NOB=     4 NVA=    67 NVB=    67
 Semi-Direct transformation.
 ModeAB=           4 MOrb=             4 LenV=       6003020
 LASXX=        43699 LTotXX=       43699 LenRXX=       93025
 LTotAB=       49326 MaxLAS=      762540 LenRXY=           0
 NonZer=      136724 LenScr=     1048064 LnRSAI=      762540
 LnScr1=     2096128 LExtra=           0 Total=      3999757
 MaxDsk=          -1 SrtSym=           T ITran=            3
 JobTyp=0 Pass  1:  I=   1 to   4.
 (rs|ai) integrals will be sorted in core.
 Spin components of T(2) and E(2):
     alpha-alpha T2 =       0.1071113231D-01 E2=     -0.1506208017D-01
     alpha-beta  T2 =       0.1488817689D+00 E2=     -0.1837100754D+00
     beta-beta   T2 =       0.1071113231D-01 E2=     -0.1506208017D-01
 ANorm=    0.1081805913D+01
 E2 =    -0.2138342358D+00 EUMP2 =    -0.34232800347456D+03
 Would need an additional         8397051 words for in-memory AO integral storage.
 Iterations=  50 Convergence= 0.100D-06
 Iteration Nr.   1
 **********************
 DD1Dir will call FoFDir   1 times, MxPair=        20
 NAB=    10 NAA=     0 NBB=     0 NumPrc=  1.
 Petite list used in FoFDir.
 MinBra= 0 MaxBra= 3 Meth= 1.
 IRaf=       0 NMat=  20 IRICut=      25 DoRegI=T DoRafI=T ISym2E=-1 JSym2E=1.
 E3=       -0.35391774D-01        EUMP3=      -0.34236339525D+03
 DE(CI)=     -0.21247204     E(CI)=       -342.32664128    
 NORM(A)=   0.10890624D+01
 Iteration Nr.   2
 **********************
 DD1Dir will call FoFDir   1 times, MxPair=        20
 NAB=    10 NAA=     0 NBB=     0 NumPrc=  1.
 DE(CI)=     -0.22609239     E(CI)=       -342.34026163    
 NORM(A)=   0.11124788D+01
 Iteration Nr.   3
 **********************
 DD1Dir will call FoFDir   1 times, MxPair=        20
 NAB=    10 NAA=     0 NBB=     0 NumPrc=  1.
 DE(CI)=     -0.23106843     E(CI)=       -342.34523767    
 NORM(A)=   0.11206545D+01
 Iteration Nr.   4
 **********************
 DD1Dir will call FoFDir   1 times, MxPair=        20
 NAB=    10 NAA=     0 NBB=     0 NumPrc=  1.
 DE(CI)=     -0.23281346     E(CI)=       -342.34698270    
 NORM(A)=   0.11216290D+01
 Iteration Nr.   5
 **********************
 DD1Dir will call FoFDir   1 times, MxPair=        20
 NAB=    10 NAA=     0 NBB=     0 NumPrc=  1.
 DE(CI)=     -0.23269971     E(CI)=       -342.34686895    
 NORM(A)=   0.11215854D+01
 Iteration Nr.   6
 **********************
 DD1Dir will call FoFDir   1 times, MxPair=        20
 NAB=    10 NAA=     0 NBB=     0 NumPrc=  1.
 DE(CI)=     -0.23269668     E(CI)=       -342.34686592    
 NORM(A)=   0.11219418D+01
 Iteration Nr.   7
 **********************
 DD1Dir will call FoFDir   1 times, MxPair=        20
 NAB=    10 NAA=     0 NBB=     0 NumPrc=  1.
 DE(CI)=     -0.23276724     E(CI)=       -342.34693648    
 NORM(A)=   0.11220210D+01
 Iteration Nr.   8
 **********************
 DD1Dir will call FoFDir   1 times, MxPair=        20
 NAB=    10 NAA=     0 NBB=     0 NumPrc=  1.
 DE(CI)=     -0.23276431     E(CI)=       -342.34693355    
 NORM(A)=   0.11219621D+01
 Iteration Nr.   9
 **********************
 DD1Dir will call FoFDir   1 times, MxPair=        20
 NAB=    10 NAA=     0 NBB=     0 NumPrc=  1.
 DE(CI)=     -0.23275239     E(CI)=       -342.34692163    
 NORM(A)=   0.11219457D+01
 Iteration Nr.  10
 **********************
 DD1Dir will call FoFDir   1 times, MxPair=        20
 NAB=    10 NAA=     0 NBB=     0 NumPrc=  1.
 DE(CI)=     -0.23275087     E(CI)=       -342.34692011    
 NORM(A)=   0.11219568D+01
 Iteration Nr.  11
 **********************
 DD1Dir will call FoFDir   1 times, MxPair=        20
 NAB=    10 NAA=     0 NBB=     0 NumPrc=  1.
 DE(CI)=     -0.23275444     E(CI)=       -342.34692368    
 NORM(A)=   0.11219611D+01
 Iteration Nr.  12
 **********************
 DD1Dir will call FoFDir   1 times, MxPair=        20
 NAB=    10 NAA=     0 NBB=     0 NumPrc=  1.
 DE(CI)=     -0.23275455     E(CI)=       -342.34692379    
 NORM(A)=   0.11219605D+01
 Iteration Nr.  13
 **********************
 DD1Dir will call FoFDir   1 times, MxPair=        20
 NAB=    10 NAA=     0 NBB=     0 NumPrc=  1.
 DE(CI)=     -0.23275440     E(CI)=       -342.34692363    
 NORM(A)=   0.11219596D+01
 Iteration Nr.  14
 **********************
 DD1Dir will call FoFDir   1 times, MxPair=        20
 NAB=    10 NAA=     0 NBB=     0 NumPrc=  1.
 DE(CI)=     -0.23275420     E(CI)=       -342.34692344    
 NORM(A)=   0.11219595D+01
 Iteration Nr.  15
 **********************
 DD1Dir will call FoFDir   1 times, MxPair=        20
 NAB=    10 NAA=     0 NBB=     0 NumPrc=  1.
 DE(CI)=     -0.23275422     E(CI)=       -342.34692346    
 NORM(A)=   0.11219596D+01
 ***************************************************************
 Dominant configurations:
 ***********************
 Spin Case        I    J    A    B          Value
   ABAB           7    7   12   12      -0.131936D+00
   ABAB           9    9   10   10      -0.101498D+00
   ABAB           8    8   11   11      -0.133280D+00
 Largest amplitude= 1.33D-01
 Variable Step   Value    
 -------- ---- -----------
     1       2    4.346370
 ---------------------------------------------------------------------------------------------------
                            Z-MATRIX (ANGSTROMS AND DEGREES)
   CD    Cent   Atom    N1       Length/X        N2       Alpha/Y        N3        Beta/Z          J
 ---------------------------------------------------------------------------------------------------
      1      1  P 
      2      2  H        1   2.300000(     1)
      3      3  H        1   2.300000(     2)      2   93.300(     4)
      4      4  H        1   2.300000(     3)      3   93.300(     5)      2  -93.300(     6)      0
 ---------------------------------------------------------------------------------------------------
                         Z-Matrix orientation:                         
 ---------------------------------------------------------------------
 Center     Atomic      Atomic             Coordinates (Angstroms)
 Number     Number       Type             X           Y           Z
 ---------------------------------------------------------------------
      1         15           0        0.000000    0.000000    0.000000
      2          1           0        0.000000    0.000000    2.300000
      3          1           0        2.296186    0.000000   -0.132397
      4          1           0       -0.139786   -2.292379   -0.124337
 ---------------------------------------------------------------------
                    Distance matrix (angstroms):
                    1          2          3          4
     1  P    0.000000
     2  H    2.300000   0.000000
     3  H    2.300000   3.345000   0.000000
     4  H    2.300000   3.339454   3.345000   0.000000
 Stoichiometry    H3P
 Framework group  CS[SG(HP),X(H2)]
 Deg. of freedom     4
 Full point group                 CS      NOp   2
 Largest Abelian subgroup         CS      NOp   2
 Largest concise Abelian subgroup CS      NOp   2
                         Standard orientation:                         
 ---------------------------------------------------------------------
 Center     Atomic      Atomic             Coordinates (Angstroms)
 Number     Number       Type             X           Y           Z
 ---------------------------------------------------------------------
      1         15           0        0.000000    0.208463    0.000000
      2          1           0       -0.966150   -1.043961    1.669727
      3          1           0        1.932300   -1.039021    0.000000
      4          1           0       -0.966150   -1.043961   -1.669727
 ---------------------------------------------------------------------
 Rotational constants (GHZ):     50.8995225     50.7718698     44.8660292
 Standard basis: CC-pVTZ (5D, 7F)
 There are    47 symmetry adapted basis functions of A'  symmetry.
 There are    29 symmetry adapted basis functions of A"  symmetry.
 Integral buffers will be    262144 words long.
 Raffenetti 1 integral format.
 Two-electron integral symmetry is turned on.
    76 basis functions,   146 primitive gaussians,    84 cartesian basis functions
     9 alpha electrons        9 beta electrons
       nuclear repulsion energy        10.8283282263 Hartrees.
 NAtoms=    4 NActive=    4 NUniq=    3 SFac= 1.78D+00 NAtFMM=   50 NAOKFM=F Big=F
 One-electron integrals computed using PRISM.
 NBasis=    76 RedAO= T  NBF=    47    29
 NBsUse=    76 1.00D-06 NBFU=    47    29
 Initial guess read from the read-write file.
 B after Tr=     0.000000    0.000000    0.000000
         Rot=    1.000000    0.000000    0.000000    0.000000 Ang=   0.00 deg.
 Initial guess orbital symmetries:
       Occupied  (A') (A') (A") (A') (A') (A') (A') (A") (A')
       Virtual   (A') (A") (A') (A') (A') (A") (A') (A') (A") (A')
                 (A') (A") (A") (A') (A') (A") (A') (A") (A') (A")
                 (A') (A") (A') (A') (A") (A') (A') (A") (A') (A')
                 (A") (A") (A') (A') (A') (A") (A") (A') (A') (A')
                 (A") (A') (A') (A") (A') (A") (A') (A") (A') (A")
                 (A") (A') (A') (A") (A') (A') (A') (A") (A") (A')
                 (A") (A") (A') (A') (A') (A") (A')
 Harris functional with IExCor=  205 diagonalized for initial guess.
 ExpMin= 9.71D-02 ExpMax= 3.12D+05 ExpMxC= 9.87D+02 IAcc=2 IRadAn=         0 AccDes= 0.00D+00
 HarFok:  IExCor=  205 AccDes= 0.00D+00 IRadAn=         0 IDoV= 1
 ScaDFX=  1.000000  1.000000  1.000000  1.000000
 FoFCou: FMM=F IPFlag=           0 FMFlag=      100000 FMFlg1=           0
         NFxFlg=           0 DoJE=T BraDBF=F KetDBF=T FulRan=T
         Omega=  0.000000  0.000000  1.000000  0.000000  0.000000 ICntrl=     500 IOpCl=  0
         NMat0=    1 NMatS0=    1 NMatT0=    0 NMatD0=    1 NMtDS0=    0 NMtDT0=    0
         I1Cent=           4 NGrid=           0.
 Petite list used in FoFCou.
 Requested convergence on RMS density matrix=1.00D-08 within 128 cycles.
 Requested convergence on MAX density matrix=1.00D-06.
 Requested convergence on             energy=1.00D-06.
 No special actions if energy rises.
 Integral accuracy reduced to 1.0D-05 until final iterations.
 Initial convergence to 1.0D-05 achieved.  Increase integral accuracy.
 SCF Done:  E(RHF) =  -342.154637456     A.U. after   12 cycles
             Convg  =    0.2187D-08             -V/T =  2.0029
 ExpMin= 9.71D-02 ExpMax= 3.12D+05 ExpMxC= 9.87D+02 IAcc=3 IRadAn=         5 AccDes= 0.00D+00
 HarFok:  IExCor=  205 AccDes= 0.00D+00 IRadAn=         5 IDoV=-2
 ScaDFX=  1.000000  1.000000  1.000000  1.000000
 Range of M.O.s used for correlation:     6    76
 NBasis=    76 NAE=     9 NBE=     9 NFC=     5 NFV=     0
 NROrb=     71 NOA=     4 NOB=     4 NVA=    67 NVB=    67
 Semi-Direct transformation.
 ModeAB=           4 MOrb=             4 LenV=       6002516
 LASXX=        43699 LTotXX=       43699 LenRXX=       93025
 LTotAB=       49326 MaxLAS=      762540 LenRXY=           0
 NonZer=      136724 LenScr=     1048064 LnRSAI=      762540
 LnScr1=     2096128 LExtra=           0 Total=      3999757
 MaxDsk=          -1 SrtSym=           T ITran=            3
 JobTyp=0 Pass  1:  I=   1 to   4.
 (rs|ai) integrals will be sorted in core.
 Spin components of T(2) and E(2):
     alpha-alpha T2 =       0.9917778828D-02 E2=     -0.1469033974D-01
     alpha-beta  T2 =       0.1324244104D+00 E2=     -0.1764415962D+00
     beta-beta   T2 =       0.9917778828D-02 E2=     -0.1469033974D-01
 ANorm=    0.1073433728D+01
 E2 =    -0.2058222756D+00 EUMP2 =    -0.34236045973180D+03
 Would need an additional         8397051 words for in-memory AO integral storage.
 Iterations=  50 Convergence= 0.100D-06
 Iteration Nr.   1
 **********************
 DD1Dir will call FoFDir   1 times, MxPair=        20
 NAB=    10 NAA=     0 NBB=     0 NumPrc=  1.
 Petite list used in FoFDir.
 MinBra= 0 MaxBra= 3 Meth= 1.
 IRaf=       0 NMat=  20 IRICut=      25 DoRegI=T DoRafI=T ISym2E=-1 JSym2E=1.
 E3=       -0.34289801D-01        EUMP3=      -0.34239474953D+03
 DE(CI)=     -0.20790205     E(CI)=       -342.36253951    
 NORM(A)=   0.10822550D+01
 Iteration Nr.   2
 **********************
 DD1Dir will call FoFDir   1 times, MxPair=        20
 NAB=    10 NAA=     0 NBB=     0 NumPrc=  1.
 DE(CI)=     -0.21972608     E(CI)=       -342.37436353    
 NORM(A)=   0.11017916D+01
 Iteration Nr.   3
 **********************
 DD1Dir will call FoFDir   1 times, MxPair=        20
 NAB=    10 NAA=     0 NBB=     0 NumPrc=  1.
 DE(CI)=     -0.22420018     E(CI)=       -342.37883764    
 NORM(A)=   0.11085019D+01
 Iteration Nr.   4
 **********************
 DD1Dir will call FoFDir   1 times, MxPair=        20
 NAB=    10 NAA=     0 NBB=     0 NumPrc=  1.
 DE(CI)=     -0.22572602     E(CI)=       -342.38036348    
 NORM(A)=   0.11093077D+01
 Iteration Nr.   5
 **********************
 DD1Dir will call FoFDir   1 times, MxPair=        20
 NAB=    10 NAA=     0 NBB=     0 NumPrc=  1.
 DE(CI)=     -0.22564934     E(CI)=       -342.38028680    
 NORM(A)=   0.11092687D+01
 Iteration Nr.   6
 **********************
 DD1Dir will call FoFDir   1 times, MxPair=        20
 NAB=    10 NAA=     0 NBB=     0 NumPrc=  1.
 DE(CI)=     -0.22563644     E(CI)=       -342.38027389    
 NORM(A)=   0.11095023D+01
 Iteration Nr.   7
 **********************
 DD1Dir will call FoFDir   1 times, MxPair=        20
 NAB=    10 NAA=     0 NBB=     0 NumPrc=  1.
 DE(CI)=     -0.22568648     E(CI)=       -342.38032393    
 NORM(A)=   0.11095484D+01
 Iteration Nr.   8
 **********************
 DD1Dir will call FoFDir   1 times, MxPair=        20
 NAB=    10 NAA=     0 NBB=     0 NumPrc=  1.
 DE(CI)=     -0.22568508     E(CI)=       -342.38032254    
 NORM(A)=   0.11095119D+01
 Iteration Nr.   9
 **********************
 DD1Dir will call FoFDir   1 times, MxPair=        20
 NAB=    10 NAA=     0 NBB=     0 NumPrc=  1.
 DE(CI)=     -0.22567741     E(CI)=       -342.38031486    
 NORM(A)=   0.11095027D+01
 Iteration Nr.  10
 **********************
 DD1Dir will call FoFDir   1 times, MxPair=        20
 NAB=    10 NAA=     0 NBB=     0 NumPrc=  1.
 DE(CI)=     -0.22567645     E(CI)=       -342.38031390    
 NORM(A)=   0.11095086D+01
 Iteration Nr.  11
 **********************
 DD1Dir will call FoFDir   1 times, MxPair=        20
 NAB=    10 NAA=     0 NBB=     0 NumPrc=  1.
 DE(CI)=     -0.22567842     E(CI)=       -342.38031587    
 NORM(A)=   0.11095108D+01
 Iteration Nr.  12
 **********************
 DD1Dir will call FoFDir   1 times, MxPair=        20
 NAB=    10 NAA=     0 NBB=     0 NumPrc=  1.
 DE(CI)=     -0.22567850     E(CI)=       -342.38031596    
 NORM(A)=   0.11095104D+01
 Iteration Nr.  13
 **********************
 DD1Dir will call FoFDir   1 times, MxPair=        20
 NAB=    10 NAA=     0 NBB=     0 NumPrc=  1.
 DE(CI)=     -0.22567842     E(CI)=       -342.38031588    
 NORM(A)=   0.11095100D+01
 ***************************************************************
 Dominant configurations:
 ***********************
 Spin Case        I    J    A    B          Value
   ABAB           7    7   12   12      -0.119435D+00
   ABAB           8    8   11   11      -0.120672D+00
 Largest amplitude= 1.21D-01
 Variable Step   Value    
 -------- ---- -----------
     1       3    4.157397
 ---------------------------------------------------------------------------------------------------
                            Z-MATRIX (ANGSTROMS AND DEGREES)
   CD    Cent   Atom    N1       Length/X        N2       Alpha/Y        N3        Beta/Z          J
 ---------------------------------------------------------------------------------------------------
      1      1  P 
      2      2  H        1   2.200000(     1)
      3      3  H        1   2.200000(     2)      2   93.300(     4)
      4      4  H        1   2.200000(     3)      3   93.300(     5)      2  -93.300(     6)      0
 ---------------------------------------------------------------------------------------------------
                         Z-Matrix orientation:                         
 ---------------------------------------------------------------------
 Center     Atomic      Atomic             Coordinates (Angstroms)
 Number     Number       Type             X           Y           Z
 ---------------------------------------------------------------------
      1         15           0        0.000000    0.000000    0.000000
      2          1           0        0.000000    0.000000    2.200000
      3          1           0        2.196352    0.000000   -0.126641
      4          1           0       -0.133709   -2.192710   -0.118931
 ---------------------------------------------------------------------
                    Distance matrix (angstroms):
                    1          2          3          4
     1  P    0.000000
     2  H    2.200000   0.000000
     3  H    2.200000   3.199566   0.000000
     4  H    2.200000   3.194260   3.199566   0.000000
 Stoichiometry    H3P
 Framework group  CS[SG(HP),X(H2)]
 Deg. of freedom     4
 Full point group                 CS      NOp   2
 Largest Abelian subgroup         CS      NOp   2
 Largest concise Abelian subgroup CS      NOp   2
                         Standard orientation:                         
 ---------------------------------------------------------------------
 Center     Atomic      Atomic             Coordinates (Angstroms)
 Number     Number       Type             X           Y           Z
 ---------------------------------------------------------------------
      1         15           0        0.000000    0.199399    0.000000
      2          1           0       -0.924144   -0.998572    1.597130
      3          1           0        1.848287   -0.993846    0.000000
      4          1           0       -0.924144   -0.998572   -1.597130
 ---------------------------------------------------------------------
 Rotational constants (GHZ):     55.6319161     55.4923949     49.0374576
 Standard basis: CC-pVTZ (5D, 7F)
 There are    47 symmetry adapted basis functions of A'  symmetry.
 There are    29 symmetry adapted basis functions of A"  symmetry.
 Integral buffers will be    262144 words long.
 Raffenetti 1 integral format.
 Two-electron integral symmetry is turned on.
    76 basis functions,   146 primitive gaussians,    84 cartesian basis functions
     9 alpha electrons        9 beta electrons
       nuclear repulsion energy        11.3205249639 Hartrees.
 NAtoms=    4 NActive=    4 NUniq=    3 SFac= 1.78D+00 NAtFMM=   50 NAOKFM=F Big=F
 One-electron integrals computed using PRISM.
 NBasis=    76 RedAO= T  NBF=    47    29
 NBsUse=    76 1.00D-06 NBFU=    47    29
 Initial guess read from the read-write file.
 B after Tr=     0.000000    0.000000    0.000000
         Rot=    1.000000    0.000000    0.000000    0.000000 Ang=   0.00 deg.
 Initial guess orbital symmetries:
       Occupied  (A') (A') (A") (A') (A') (A') (A') (A") (A')
       Virtual   (A') (A") (A') (A') (A") (A') (A') (A') (A") (A')
                 (A') (A") (A") (A') (A') (A") (A') (A") (A') (A")
                 (A') (A") (A') (A') (A') (A") (A') (A") (A') (A')
                 (A") (A") (A') (A') (A') (A") (A") (A') (A') (A')
                 (A") (A') (A') (A") (A') (A") (A') (A") (A') (A")
                 (A') (A") (A') (A") (A') (A') (A") (A') (A") (A')
                 (A") (A") (A') (A') (A') (A") (A')
 Harris functional with IExCor=  205 diagonalized for initial guess.
 ExpMin= 9.71D-02 ExpMax= 3.12D+05 ExpMxC= 9.87D+02 IAcc=2 IRadAn=         0 AccDes= 0.00D+00
 HarFok:  IExCor=  205 AccDes= 0.00D+00 IRadAn=         0 IDoV= 1
 ScaDFX=  1.000000  1.000000  1.000000  1.000000
 FoFCou: FMM=F IPFlag=           0 FMFlag=      100000 FMFlg1=           0
         NFxFlg=           0 DoJE=T BraDBF=F KetDBF=T FulRan=T
         Omega=  0.000000  0.000000  1.000000  0.000000  0.000000 ICntrl=     500 IOpCl=  0
         NMat0=    1 NMatS0=    1 NMatT0=    0 NMatD0=    1 NMtDS0=    0 NMtDT0=    0
         I1Cent=           4 NGrid=           0.
 Petite list used in FoFCou.
 Requested convergence on RMS density matrix=1.00D-08 within 128 cycles.
 Requested convergence on MAX density matrix=1.00D-06.
 Requested convergence on             energy=1.00D-06.
 No special actions if energy rises.
 Integral accuracy reduced to 1.0D-05 until final iterations.
 Initial convergence to 1.0D-05 achieved.  Increase integral accuracy.
 SCF Done:  E(RHF) =  -342.196960846     A.U. after   12 cycles
             Convg  =    0.1742D-08             -V/T =  2.0029
 ExpMin= 9.71D-02 ExpMax= 3.12D+05 ExpMxC= 9.87D+02 IAcc=3 IRadAn=         5 AccDes= 0.00D+00
 HarFok:  IExCor=  205 AccDes= 0.00D+00 IRadAn=         5 IDoV=-2
 ScaDFX=  1.000000  1.000000  1.000000  1.000000
 Range of M.O.s used for correlation:     6    76
 NBasis=    76 NAE=     9 NBE=     9 NFC=     5 NFV=     0
 NROrb=     71 NOA=     4 NOB=     4 NVA=    67 NVB=    67
 Semi-Direct transformation.
 ModeAB=           4 MOrb=             4 LenV=       6002306
 LASXX=        43699 LTotXX=       43699 LenRXX=       93025
 LTotAB=       49326 MaxLAS=      762540 LenRXY=           0
 NonZer=      136724 LenScr=     1048064 LnRSAI=      762540
 LnScr1=     2096128 LExtra=           0 Total=      3999757
 MaxDsk=          -1 SrtSym=           T ITran=            3
 JobTyp=0 Pass  1:  I=   1 to   4.
 (rs|ai) integrals will be sorted in core.
 Spin components of T(2) and E(2):
     alpha-alpha T2 =       0.9251761225D-02 E2=     -0.1438108754D-01
     alpha-beta  T2 =       0.1181704757D+00 E2=     -0.1699179439D+00
     beta-beta   T2 =       0.9251761225D-02 E2=     -0.1438108754D-01
 ANorm=    0.1066149144D+01
 E2 =    -0.1986801190D+00 EUMP2 =    -0.34239564096523D+03
 Would need an additional         8397051 words for in-memory AO integral storage.
 Iterations=  50 Convergence= 0.100D-06
 Iteration Nr.   1
 **********************
 DD1Dir will call FoFDir   1 times, MxPair=        20
 NAB=    10 NAA=     0 NBB=     0 NumPrc=  1.
 Petite list used in FoFDir.
 MinBra= 0 MaxBra= 3 Meth= 1.
 IRaf=       0 NMat=  20 IRICut=      25 DoRegI=T DoRafI=T ISym2E=-1 JSym2E=1.
 E3=       -0.33100163D-01        EUMP3=      -0.34242874113D+03
 DE(CI)=     -0.20346441     E(CI)=       -342.40042526    
 NORM(A)=   0.10757999D+01
 Iteration Nr.   2
 **********************
 DD1Dir will call FoFDir   1 times, MxPair=        20
 NAB=    10 NAA=     0 NBB=     0 NumPrc=  1.
 DE(CI)=     -0.21377111     E(CI)=       -342.41073196    
 NORM(A)=   0.10918772D+01
 Iteration Nr.   3
 **********************
 DD1Dir will call FoFDir   1 times, MxPair=        20
 NAB=    10 NAA=     0 NBB=     0 NumPrc=  1.
 DE(CI)=     -0.21772388     E(CI)=       -342.41468473    
 NORM(A)=   0.10972227D+01
 Iteration Nr.   4
 **********************
 DD1Dir will call FoFDir   1 times, MxPair=        20
 NAB=    10 NAA=     0 NBB=     0 NumPrc=  1.
 DE(CI)=     -0.21901525     E(CI)=       -342.41597609    
 NORM(A)=   0.10978824D+01
 Iteration Nr.   5
 **********************
 DD1Dir will call FoFDir   1 times, MxPair=        20
 NAB=    10 NAA=     0 NBB=     0 NumPrc=  1.
 DE(CI)=     -0.21896915     E(CI)=       -342.41592999    
 NORM(A)=   0.10978696D+01
 Iteration Nr.   6
 **********************
 DD1Dir will call FoFDir   1 times, MxPair=        20
 NAB=    10 NAA=     0 NBB=     0 NumPrc=  1.
 DE(CI)=     -0.21895668     E(CI)=       -342.41591752    
 NORM(A)=   0.10980193D+01
 Iteration Nr.   7
 **********************
 DD1Dir will call FoFDir   1 times, MxPair=        20
 NAB=    10 NAA=     0 NBB=     0 NumPrc=  1.
 DE(CI)=     -0.21899008     E(CI)=       -342.41595093    
 NORM(A)=   0.10980422D+01
 Iteration Nr.   8
 **********************
 DD1Dir will call FoFDir   1 times, MxPair=        20
 NAB=    10 NAA=     0 NBB=     0 NumPrc=  1.
 DE(CI)=     -0.21898877     E(CI)=       -342.41594962    
 NORM(A)=   0.10980210D+01
 Iteration Nr.   9
 **********************
 DD1Dir will call FoFDir   1 times, MxPair=        20
 NAB=    10 NAA=     0 NBB=     0 NumPrc=  1.
 DE(CI)=     -0.21898419     E(CI)=       -342.41594504    
 NORM(A)=   0.10980169D+01
 Iteration Nr.  10
 **********************
 DD1Dir will call FoFDir   1 times, MxPair=        20
 NAB=    10 NAA=     0 NBB=     0 NumPrc=  1.
 DE(CI)=     -0.21898380     E(CI)=       -342.41594465    
 NORM(A)=   0.10980196D+01
 Iteration Nr.  11
 **********************
 DD1Dir will call FoFDir   1 times, MxPair=        20
 NAB=    10 NAA=     0 NBB=     0 NumPrc=  1.
 DE(CI)=     -0.21898473     E(CI)=       -342.41594558    
 NORM(A)=   0.10980205D+01
 Iteration Nr.  12
 **********************
 DD1Dir will call FoFDir   1 times, MxPair=        20
 NAB=    10 NAA=     0 NBB=     0 NumPrc=  1.
 DE(CI)=     -0.21898476     E(CI)=       -342.41594561    
 NORM(A)=   0.10980203D+01
 ***************************************************************
 Dominant configurations:
 ***********************
 Spin Case        I    J    A    B          Value
   ABAB           7    7   12   12      -0.107169D+00
   ABAB           8    8   11   11      -0.108355D+00
 Largest amplitude= 1.08D-01
 Variable Step   Value    
 -------- ---- -----------
     1       4    3.968425
 ---------------------------------------------------------------------------------------------------
                            Z-MATRIX (ANGSTROMS AND DEGREES)
   CD    Cent   Atom    N1       Length/X        N2       Alpha/Y        N3        Beta/Z          J
 ---------------------------------------------------------------------------------------------------
      1      1  P 
      2      2  H        1   2.100000(     1)
      3      3  H        1   2.100000(     2)      2   93.300(     4)
      4      4  H        1   2.100000(     3)      3   93.300(     5)      2  -93.300(     6)      0
 ---------------------------------------------------------------------------------------------------
                         Z-Matrix orientation:                         
 ---------------------------------------------------------------------
 Center     Atomic      Atomic             Coordinates (Angstroms)
 Number     Number       Type             X           Y           Z
 ---------------------------------------------------------------------
      1         15           0        0.000000    0.000000    0.000000
      2          1           0        0.000000    0.000000    2.100000
      3          1           0        2.096518    0.000000   -0.120884
      4          1           0       -0.127631   -2.093041   -0.113525
 ---------------------------------------------------------------------
                    Distance matrix (angstroms):
                    1          2          3          4
     1  P    0.000000
     2  H    2.100000   0.000000
     3  H    2.100000   3.054131   0.000000
     4  H    2.100000   3.049066   3.054131   0.000000
 Stoichiometry    H3P
 Framework group  CS[SG(HP),X(H2)]
 Deg. of freedom     4
 Full point group                 CS      NOp   2
 Largest Abelian subgroup         CS      NOp   2
 Largest concise Abelian subgroup CS      NOp   2
                         Standard orientation:                         
 ---------------------------------------------------------------------
 Center     Atomic      Atomic             Coordinates (Angstroms)
 Number     Number       Type             X           Y           Z
 ---------------------------------------------------------------------
      1         15           0        0.000000    0.190336    0.000000
      2          1           0       -0.882137   -0.953182    1.524533
      3          1           0        1.764274   -0.948671    0.000000
      4          1           0       -0.882137   -0.953182   -1.524533
 ---------------------------------------------------------------------
 Rotational constants (GHZ):     61.0563433     60.9032180     53.8188877
 Standard basis: CC-pVTZ (5D, 7F)
 There are    47 symmetry adapted basis functions of A'  symmetry.
 There are    29 symmetry adapted basis functions of A"  symmetry.
 Integral buffers will be    262144 words long.
 Raffenetti 1 integral format.
 Two-electron integral symmetry is turned on.
    76 basis functions,   146 primitive gaussians,    84 cartesian basis functions
     9 alpha electrons        9 beta electrons
       nuclear repulsion energy        11.8595975812 Hartrees.
 NAtoms=    4 NActive=    4 NUniq=    3 SFac= 1.78D+00 NAtFMM=   50 NAOKFM=F Big=F
 One-electron integrals computed using PRISM.
 NBasis=    76 RedAO= T  NBF=    47    29
 NBsUse=    76 1.00D-06 NBFU=    47    29
 Initial guess read from the read-write file.
 B after Tr=     0.000000    0.000000    0.000000
         Rot=    1.000000    0.000000    0.000000    0.000000 Ang=   0.00 deg.
 Initial guess orbital symmetries:
       Occupied  (A') (A') (A") (A') (A') (A') (A') (A") (A')
       Virtual   (A') (A") (A') (A') (A") (A') (A') (A') (A") (A')
                 (A') (A") (A") (A') (A') (A") (A') (A") (A') (A")
                 (A') (A') (A") (A') (A') (A") (A") (A') (A') (A')
                 (A") (A") (A') (A') (A') (A") (A') (A") (A') (A')
                 (A") (A') (A') (A") (A') (A") (A') (A") (A') (A")
                 (A') (A") (A') (A") (A') (A') (A") (A') (A") (A')
                 (A") (A") (A') (A') (A') (A") (A')
 Harris functional with IExCor=  205 diagonalized for initial guess.
 ExpMin= 9.71D-02 ExpMax= 3.12D+05 ExpMxC= 9.87D+02 IAcc=2 IRadAn=         0 AccDes= 0.00D+00
 HarFok:  IExCor=  205 AccDes= 0.00D+00 IRadAn=         0 IDoV= 1
 ScaDFX=  1.000000  1.000000  1.000000  1.000000
 FoFCou: FMM=F IPFlag=           0 FMFlag=      100000 FMFlg1=           0
         NFxFlg=           0 DoJE=T BraDBF=F KetDBF=T FulRan=T
         Omega=  0.000000  0.000000  1.000000  0.000000  0.000000 ICntrl=     500 IOpCl=  0
         NMat0=    1 NMatS0=    1 NMatT0=    0 NMatD0=    1 NMtDS0=    0 NMtDT0=    0
         I1Cent=           4 NGrid=           0.
 Petite list used in FoFCou.
 Requested convergence on RMS density matrix=1.00D-08 within 128 cycles.
 Requested convergence on MAX density matrix=1.00D-06.
 Requested convergence on             energy=1.00D-06.
 No special actions if energy rises.
 Integral accuracy reduced to 1.0D-05 until final iterations.
 Initial convergence to 1.0D-05 achieved.  Increase integral accuracy.
 SCF Done:  E(RHF) =  -342.240838758     A.U. after   11 cycles
             Convg  =    0.2382D-08             -V/T =  2.0029
 ExpMin= 9.71D-02 ExpMax= 3.12D+05 ExpMxC= 9.87D+02 IAcc=3 IRadAn=         5 AccDes= 0.00D+00
 HarFok:  IExCor=  205 AccDes= 0.00D+00 IRadAn=         5 IDoV=-2
 ScaDFX=  1.000000  1.000000  1.000000  1.000000
 Range of M.O.s used for correlation:     6    76
 NBasis=    76 NAE=     9 NBE=     9 NFC=     5 NFV=     0
 NROrb=     71 NOA=     4 NOB=     4 NVA=    67 NVB=    67
 Semi-Direct transformation.
 ModeAB=           4 MOrb=             4 LenV=       6001928
 LASXX=        43699 LTotXX=       43699 LenRXX=       93025
 LTotAB=       49326 MaxLAS=      762540 LenRXY=           0
 NonZer=      136724 LenScr=     1048064 LnRSAI=      762540
 LnScr1=     2096128 LExtra=           0 Total=      3999757
 MaxDsk=          -1 SrtSym=           T ITran=            3
 JobTyp=0 Pass  1:  I=   1 to   4.
 (rs|ai) integrals will be sorted in core.
 Spin components of T(2) and E(2):
     alpha-alpha T2 =       0.8694026635D-02 E2=     -0.1413157869D-01
     alpha-beta  T2 =       0.1058699677D+00 E2=     -0.1641124956D+00
     beta-beta   T2 =       0.8694026635D-02 E2=     -0.1413157869D-01
 ANorm=    0.1059838677D+01
 E2 =    -0.1923756530D+00 EUMP2 =    -0.34243321441065D+03
 Would need an additional         8397051 words for in-memory AO integral storage.
 Iterations=  50 Convergence= 0.100D-06
 Iteration Nr.   1
 **********************
 DD1Dir will call FoFDir   1 times, MxPair=        20
 NAB=    10 NAA=     0 NBB=     0 NumPrc=  1.
 Petite list used in FoFDir.
 MinBra= 0 MaxBra= 3 Meth= 1.
 IRaf=       0 NMat=  20 IRICut=      25 DoRegI=T DoRafI=T ISym2E=-1 JSym2E=1.
 E3=       -0.31874589D-01        EUMP3=      -0.34246508900D+03
 DE(CI)=     -0.19924859     E(CI)=       -342.44008735    
 NORM(A)=   0.10697620D+01
 Iteration Nr.   2
 **********************
 DD1Dir will call FoFDir   1 times, MxPair=        20
 NAB=    10 NAA=     0 NBB=     0 NumPrc=  1.
 DE(CI)=     -0.20826794     E(CI)=       -342.44910670    
 NORM(A)=   0.10828176D+01
 Iteration Nr.   3
 **********************
 DD1Dir will call FoFDir   1 times, MxPair=        20
 NAB=    10 NAA=     0 NBB=     0 NumPrc=  1.
 DE(CI)=     -0.21170088     E(CI)=       -342.45253964    
 NORM(A)=   0.10869560D+01
 Iteration Nr.   4
 **********************
 DD1Dir will call FoFDir   1 times, MxPair=        20
 NAB=    10 NAA=     0 NBB=     0 NumPrc=  1.
 DE(CI)=     -0.21276228     E(CI)=       -342.45360104    
 NORM(A)=   0.10874876D+01
 Iteration Nr.   5
 **********************
 DD1Dir will call FoFDir   1 times, MxPair=        20
 NAB=    10 NAA=     0 NBB=     0 NumPrc=  1.
 DE(CI)=     -0.21273896     E(CI)=       -342.45357772    
 NORM(A)=   0.10874988D+01
 Iteration Nr.   6
 **********************
 DD1Dir will call FoFDir   1 times, MxPair=        20
 NAB=    10 NAA=     0 NBB=     0 NumPrc=  1.
 DE(CI)=     -0.21273026     E(CI)=       -342.45356902    
 NORM(A)=   0.10875928D+01
 Iteration Nr.   7
 **********************
 DD1Dir will call FoFDir   1 times, MxPair=        20
 NAB=    10 NAA=     0 NBB=     0 NumPrc=  1.
 DE(CI)=     -0.21275145     E(CI)=       -342.45359021    
 NORM(A)=   0.10876029D+01
 Iteration Nr.   8
 **********************
 DD1Dir will call FoFDir   1 times, MxPair=        20
 NAB=    10 NAA=     0 NBB=     0 NumPrc=  1.
 DE(CI)=     -0.21275022     E(CI)=       -342.45358898    
 NORM(A)=   0.10875913D+01
 Iteration Nr.   9
 **********************
 DD1Dir will call FoFDir   1 times, MxPair=        20
 NAB=    10 NAA=     0 NBB=     0 NumPrc=  1.
 DE(CI)=     -0.21274762     E(CI)=       -342.45358638    
 NORM(A)=   0.10875898D+01
 Iteration Nr.  10
 **********************
 DD1Dir will call FoFDir   1 times, MxPair=        20
 NAB=    10 NAA=     0 NBB=     0 NumPrc=  1.
 DE(CI)=     -0.21274753     E(CI)=       -342.45358629    
 NORM(A)=   0.10875909D+01
 Iteration Nr.  11
 **********************
 DD1Dir will call FoFDir   1 times, MxPair=        20
 NAB=    10 NAA=     0 NBB=     0 NumPrc=  1.
 DE(CI)=     -0.21274790     E(CI)=       -342.45358665    
 NORM(A)=   0.10875911D+01
 Iteration Nr.  12
 **********************
 DD1Dir will call FoFDir   1 times, MxPair=        20
 NAB=    10 NAA=     0 NBB=     0 NumPrc=  1.
 DE(CI)=     -0.21274788     E(CI)=       -342.45358664    
 NORM(A)=   0.10875910D+01
 ***************************************************************
 Largest amplitude= 9.64D-02
 Variable Step   Value    
 -------- ---- -----------
     1       5    3.779452
 ---------------------------------------------------------------------------------------------------
                            Z-MATRIX (ANGSTROMS AND DEGREES)
   CD    Cent   Atom    N1       Length/X        N2       Alpha/Y        N3        Beta/Z          J
 ---------------------------------------------------------------------------------------------------
      1      1  P 
      2      2  H        1   2.000000(     1)
      3      3  H        1   2.000000(     2)      2   93.300(     4)
      4      4  H        1   2.000000(     3)      3   93.300(     5)      2  -93.300(     6)      0
 ---------------------------------------------------------------------------------------------------
                         Z-Matrix orientation:                         
 ---------------------------------------------------------------------
 Center     Atomic      Atomic             Coordinates (Angstroms)
 Number     Number       Type             X           Y           Z
 ---------------------------------------------------------------------
      1         15           0        0.000000    0.000000    0.000000
      2          1           0        0.000000    0.000000    2.000000
      3          1           0        1.996684    0.000000   -0.115128
      4          1           0       -0.121553   -1.993373   -0.108119
 ---------------------------------------------------------------------
                    Distance matrix (angstroms):
                    1          2          3          4
     1  P    0.000000
     2  H    2.000000   0.000000
     3  H    2.000000   2.908696   0.000000
     4  H    2.000000   2.903873   2.908696   0.000000
 Stoichiometry    H3P
 Framework group  CS[SG(HP),X(H2)]
 Deg. of freedom     4
 Full point group                 CS      NOp   2
 Largest Abelian subgroup         CS      NOp   2
 Largest concise Abelian subgroup CS      NOp   2
                         Standard orientation:                         
 ---------------------------------------------------------------------
 Center     Atomic      Atomic             Coordinates (Angstroms)
 Number     Number       Type             X           Y           Z
 ---------------------------------------------------------------------
      1         15           0        0.000000    0.181272    0.000000
      2          1           0       -0.840131   -0.907792    1.451936
      3          1           0        1.680261   -0.903496    0.000000
      4          1           0       -0.840131   -0.907792   -1.451936
 ---------------------------------------------------------------------
 Rotational constants (GHZ):     67.3146185     67.1457978     59.3353237
 Standard basis: CC-pVTZ (5D, 7F)
 There are    47 symmetry adapted basis functions of A'  symmetry.
 There are    29 symmetry adapted basis functions of A"  symmetry.
 Integral buffers will be    262144 words long.
 Raffenetti 1 integral format.
 Two-electron integral symmetry is turned on.
    76 basis functions,   146 primitive gaussians,    84 cartesian basis functions
     9 alpha electrons        9 beta electrons
       nuclear repulsion energy        12.4525774603 Hartrees.
 NAtoms=    4 NActive=    4 NUniq=    3 SFac= 1.78D+00 NAtFMM=   50 NAOKFM=F Big=F
 One-electron integrals computed using PRISM.
 NBasis=    76 RedAO= T  NBF=    47    29
 NBsUse=    76 1.00D-06 NBFU=    47    29
 Initial guess read from the read-write file.
 B after Tr=     0.000000    0.000000    0.000000
         Rot=    1.000000    0.000000    0.000000    0.000000 Ang=   0.00 deg.
 Initial guess orbital symmetries:
       Occupied  (A') (A') (A") (A') (A') (A') (A') (A") (A')
       Virtual   (A') (A") (A') (A') (A") (A') (A') (A') (A") (A')
                 (A') (A") (A') (A") (A') (A") (A') (A") (A') (A")
                 (A') (A') (A") (A') (A') (A") (A") (A') (A') (A')
                 (A") (A") (A') (A') (A') (A") (A') (A") (A') (A')
                 (A") (A') (A') (A") (A') (A") (A") (A') (A') (A")
                 (A') (A") (A') (A") (A') (A') (A") (A') (A") (A')
                 (A") (A") (A') (A') (A") (A') (A')
 Harris functional with IExCor=  205 diagonalized for initial guess.
 ExpMin= 9.71D-02 ExpMax= 3.12D+05 ExpMxC= 9.87D+02 IAcc=2 IRadAn=         0 AccDes= 0.00D+00
 HarFok:  IExCor=  205 AccDes= 0.00D+00 IRadAn=         0 IDoV= 1
 ScaDFX=  1.000000  1.000000  1.000000  1.000000
 FoFCou: FMM=F IPFlag=           0 FMFlag=      100000 FMFlg1=           0
         NFxFlg=           0 DoJE=T BraDBF=F KetDBF=T FulRan=T
         Omega=  0.000000  0.000000  1.000000  0.000000  0.000000 ICntrl=     500 IOpCl=  0
         NMat0=    1 NMatS0=    1 NMatT0=    0 NMatD0=    1 NMtDS0=    0 NMtDT0=    0
         I1Cent=           4 NGrid=           0.
 Petite list used in FoFCou.
 Requested convergence on RMS density matrix=1.00D-08 within 128 cycles.
 Requested convergence on MAX density matrix=1.00D-06.
 Requested convergence on             energy=1.00D-06.
 No special actions if energy rises.
 Integral accuracy reduced to 1.0D-05 until final iterations.
 Initial convergence to 1.0D-05 achieved.  Increase integral accuracy.
 SCF Done:  E(RHF) =  -342.285779924     A.U. after   11 cycles
             Convg  =    0.2108D-08             -V/T =  2.0028
 ExpMin= 9.71D-02 ExpMax= 3.12D+05 ExpMxC= 9.87D+02 IAcc=3 IRadAn=         5 AccDes= 0.00D+00
 HarFok:  IExCor=  205 AccDes= 0.00D+00 IRadAn=         5 IDoV=-2
 ScaDFX=  1.000000  1.000000  1.000000  1.000000
 Range of M.O.s used for correlation:     6    76
 NBasis=    76 NAE=     9 NBE=     9 NFC=     5 NFV=     0
 NROrb=     71 NOA=     4 NOB=     4 NVA=    67 NVB=    67
 Semi-Direct transformation.
 ModeAB=           4 MOrb=             4 LenV=       6001676
 LASXX=        43699 LTotXX=       43699 LenRXX=       93025
 LTotAB=       49326 MaxLAS=      762540 LenRXY=           0
 NonZer=      136724 LenScr=     1048064 LnRSAI=      762540
 LnScr1=     2096128 LExtra=           0 Total=      3999757
 MaxDsk=          -1 SrtSym=           T ITran=            3
 JobTyp=0 Pass  1:  I=   1 to   4.
 (rs|ai) integrals will be sorted in core.
 Spin components of T(2) and E(2):
     alpha-alpha T2 =       0.8227282578D-02 E2=     -0.1393919514D-01
     alpha-beta  T2 =       0.9529266241D-01 E2=     -0.1590002416D+00
     beta-beta   T2 =       0.8227282578D-02 E2=     -0.1393919514D-01
 ANorm=    0.1054394247D+01
 E2 =    -0.1868786319D+00 EUMP2 =    -0.34247265855553D+03
 Would need an additional         8397051 words for in-memory AO integral storage.
 Iterations=  50 Convergence= 0.100D-06
 Iteration Nr.   1
 **********************
 DD1Dir will call FoFDir   1 times, MxPair=        20
 NAB=    10 NAA=     0 NBB=     0 NumPrc=  1.
 Petite list used in FoFDir.
 MinBra= 0 MaxBra= 3 Meth= 1.
 IRaf=       0 NMat=  20 IRICut=      25 DoRegI=T DoRafI=T ISym2E=-1 JSym2E=1.
 E3=       -0.30654593D-01        EUMP3=      -0.34250331315D+03
 DE(CI)=     -0.19533387     E(CI)=       -342.48111379    
 NORM(A)=   0.10641948D+01
 Iteration Nr.   2
 **********************
 DD1Dir will call FoFDir   1 times, MxPair=        20
 NAB=    10 NAA=     0 NBB=     0 NumPrc=  1.
 DE(CI)=     -0.20325679     E(CI)=       -342.48903672    
 NORM(A)=   0.10746695D+01
 Iteration Nr.   3
 **********************
 DD1Dir will call FoFDir   1 times, MxPair=        20
 NAB=    10 NAA=     0 NBB=     0 NumPrc=  1.
 DE(CI)=     -0.20619104     E(CI)=       -342.49197097    
 NORM(A)=   0.10777866D+01
 Iteration Nr.   4
 **********************
 DD1Dir will call FoFDir   1 times, MxPair=        20
 NAB=    10 NAA=     0 NBB=     0 NumPrc=  1.
 DE(CI)=     -0.20704013     E(CI)=       -342.49282005    
 NORM(A)=   0.10782051D+01
 Iteration Nr.   5
 **********************
 DD1Dir will call FoFDir   1 times, MxPair=        20
 NAB=    10 NAA=     0 NBB=     0 NumPrc=  1.
 DE(CI)=     -0.20703192     E(CI)=       -342.49281185    
 NORM(A)=   0.10782306D+01
 Iteration Nr.   6
 **********************
 DD1Dir will call FoFDir   1 times, MxPair=        20
 NAB=    10 NAA=     0 NBB=     0 NumPrc=  1.
 DE(CI)=     -0.20702718     E(CI)=       -342.49280711    
 NORM(A)=   0.10782885D+01
 Iteration Nr.   7
 **********************
 DD1Dir will call FoFDir   1 times, MxPair=        20
 NAB=    10 NAA=     0 NBB=     0 NumPrc=  1.
 DE(CI)=     -0.20703997     E(CI)=       -342.49281990    
 NORM(A)=   0.10782926D+01
 Iteration Nr.   8
 **********************
 DD1Dir will call FoFDir   1 times, MxPair=        20
 NAB=    10 NAA=     0 NBB=     0 NumPrc=  1.
 DE(CI)=     -0.20703905     E(CI)=       -342.49281897    
 NORM(A)=   0.10782866D+01
 Iteration Nr.   9
 **********************
 DD1Dir will call FoFDir   1 times, MxPair=        20
 NAB=    10 NAA=     0 NBB=     0 NumPrc=  1.
 DE(CI)=     -0.20703763     E(CI)=       -342.49281755    
 NORM(A)=   0.10782862D+01
 Iteration Nr.  10
 **********************
 DD1Dir will call FoFDir   1 times, MxPair=        20
 NAB=    10 NAA=     0 NBB=     0 NumPrc=  1.
 DE(CI)=     -0.20703762     E(CI)=       -342.49281754    
 NORM(A)=   0.10782865D+01
 Iteration Nr.  11
 **********************
 DD1Dir will call FoFDir   1 times, MxPair=        20
 NAB=    10 NAA=     0 NBB=     0 NumPrc=  1.
 DE(CI)=     -0.20703774     E(CI)=       -342.49281766    
 NORM(A)=   0.10782865D+01
 Iteration Nr.  12
 **********************
 DD1Dir will call FoFDir   1 times, MxPair=        20
 NAB=    10 NAA=     0 NBB=     0 NumPrc=  1.
 DE(CI)=     -0.20703772     E(CI)=       -342.49281764    
 NORM(A)=   0.10782865D+01
 ***************************************************************
 Largest amplitude= 8.50D-02
 Variable Step   Value    
 -------- ---- -----------
     1       6    3.590480
 ---------------------------------------------------------------------------------------------------
                            Z-MATRIX (ANGSTROMS AND DEGREES)
   CD    Cent   Atom    N1       Length/X        N2       Alpha/Y        N3        Beta/Z          J
 ---------------------------------------------------------------------------------------------------
      1      1  P 
      2      2  H        1   1.900000(     1)
      3      3  H        1   1.900000(     2)      2   93.300(     4)
      4      4  H        1   1.900000(     3)      3   93.300(     5)      2  -93.300(     6)      0
 ---------------------------------------------------------------------------------------------------
                         Z-Matrix orientation:                         
 ---------------------------------------------------------------------
 Center     Atomic      Atomic             Coordinates (Angstroms)
 Number     Number       Type             X           Y           Z
 ---------------------------------------------------------------------
      1         15           0        0.000000    0.000000    0.000000
      2          1           0        0.000000    0.000000    1.900000
      3          1           0        1.896849    0.000000   -0.109372
      4          1           0       -0.115476   -1.893704   -0.102713
 ---------------------------------------------------------------------
                    Distance matrix (angstroms):
                    1          2          3          4
     1  P    0.000000
     2  H    1.900000   0.000000
     3  H    1.900000   2.763261   0.000000
     4  H    1.900000   2.758679   2.763261   0.000000
 Stoichiometry    H3P
 Framework group  CS[SG(HP),X(H2)]
 Deg. of freedom     4
 Full point group                 CS      NOp   2
 Largest Abelian subgroup         CS      NOp   2
 Largest concise Abelian subgroup CS      NOp   2
                         Standard orientation:                         
 ---------------------------------------------------------------------
 Center     Atomic      Atomic             Coordinates (Angstroms)
 Number     Number       Type             X           Y           Z
 ---------------------------------------------------------------------
      1         15           0        0.000000    0.172208    0.000000
      2          1           0       -0.798124   -0.862403    1.379340
      3          1           0        1.596248   -0.858322    0.000000
      4          1           0       -0.798124   -0.862403   -1.379340
 ---------------------------------------------------------------------
 Rotational constants (GHZ):     74.5868349     74.3997760     65.7455110
 Standard basis: CC-pVTZ (5D, 7F)
 There are    47 symmetry adapted basis functions of A'  symmetry.
 There are    29 symmetry adapted basis functions of A"  symmetry.
 Integral buffers will be    262144 words long.
 Raffenetti 1 integral format.
 Two-electron integral symmetry is turned on.
    76 basis functions,   146 primitive gaussians,    84 cartesian basis functions
     9 alpha electrons        9 beta electrons
       nuclear repulsion energy        13.1079762740 Hartrees.
 NAtoms=    4 NActive=    4 NUniq=    3 SFac= 1.78D+00 NAtFMM=   50 NAOKFM=F Big=F
 One-electron integrals computed using PRISM.
 NBasis=    76 RedAO= T  NBF=    47    29
 NBsUse=    76 1.00D-06 NBFU=    47    29
 Initial guess read from the read-write file.
 B after Tr=     0.000000    0.000000    0.000000
         Rot=    1.000000    0.000000    0.000000    0.000000 Ang=   0.00 deg.
 Initial guess orbital symmetries:
       Occupied  (A') (A') (A") (A') (A') (A') (A') (A") (A')
       Virtual   (A') (A") (A') (A') (A") (A') (A') (A') (A") (A')
                 (A') (A") (A') (A") (A') (A") (A') (A") (A') (A")
                 (A') (A') (A") (A') (A') (A") (A") (A') (A') (A')
                 (A") (A") (A') (A') (A') (A") (A') (A") (A') (A')
                 (A") (A') (A') (A") (A') (A") (A") (A') (A') (A")
                 (A') (A") (A') (A") (A') (A') (A") (A") (A') (A')
                 (A") (A") (A') (A') (A") (A') (A')
 Harris functional with IExCor=  205 diagonalized for initial guess.
 ExpMin= 9.71D-02 ExpMax= 3.12D+05 ExpMxC= 9.87D+02 IAcc=2 IRadAn=         0 AccDes= 0.00D+00
 HarFok:  IExCor=  205 AccDes= 0.00D+00 IRadAn=         0 IDoV= 1
 ScaDFX=  1.000000  1.000000  1.000000  1.000000
 FoFCou: FMM=F IPFlag=           0 FMFlag=      100000 FMFlg1=           0
         NFxFlg=           0 DoJE=T BraDBF=F KetDBF=T FulRan=T
         Omega=  0.000000  0.000000  1.000000  0.000000  0.000000 ICntrl=     500 IOpCl=  0
         NMat0=    1 NMatS0=    1 NMatT0=    0 NMatD0=    1 NMtDS0=    0 NMtDT0=    0
         I1Cent=           4 NGrid=           0.
 Petite list used in FoFCou.
 Requested convergence on RMS density matrix=1.00D-08 within 128 cycles.
 Requested convergence on MAX density matrix=1.00D-06.
 Requested convergence on             energy=1.00D-06.
 No special actions if energy rises.
 Integral accuracy reduced to 1.0D-05 until final iterations.
 Initial convergence to 1.0D-05 achieved.  Increase integral accuracy.
 SCF Done:  E(RHF) =  -342.331007344     A.U. after   11 cycles
             Convg  =    0.1847D-08             -V/T =  2.0026
 ExpMin= 9.71D-02 ExpMax= 3.12D+05 ExpMxC= 9.87D+02 IAcc=3 IRadAn=         5 AccDes= 0.00D+00
 HarFok:  IExCor=  205 AccDes= 0.00D+00 IRadAn=         5 IDoV=-2
 ScaDFX=  1.000000  1.000000  1.000000  1.000000
 Range of M.O.s used for correlation:     6    76
 NBasis=    76 NAE=     9 NBE=     9 NFC=     5 NFV=     0
 NROrb=     71 NOA=     4 NOB=     4 NVA=    67 NVB=    67
 Semi-Direct transformation.
 ModeAB=           4 MOrb=             4 LenV=       6001298
 LASXX=        43699 LTotXX=       43699 LenRXX=       93025
 LTotAB=       49326 MaxLAS=      762540 LenRXY=           0
 NonZer=      136724 LenScr=     1048064 LnRSAI=      762540
 LnScr1=     2096128 LExtra=           0 Total=      3999757
 MaxDsk=          -1 SrtSym=           T ITran=            3
 JobTyp=0 Pass  1:  I=   1 to   4.
 (rs|ai) integrals will be sorted in core.
 Spin components of T(2) and E(2):
     alpha-alpha T2 =       0.7836051922D-02 E2=     -0.1380167244D-01
     alpha-beta  T2 =       0.8623011327D-01 E2=     -0.1545609489D+00
     beta-beta   T2 =       0.7836051922D-02 E2=     -0.1380167244D-01
 ANorm=    0.1049715303D+01
 E2 =    -0.1821642938D+00 EUMP2 =    -0.34251317163819D+03
 Would need an additional         8397051 words for in-memory AO integral storage.
 Iterations=  50 Convergence= 0.100D-06
 Iteration Nr.   1
 **********************
 DD1Dir will call FoFDir   1 times, MxPair=        20
 NAB=    10 NAA=     0 NBB=     0 NumPrc=  1.
 Petite list used in FoFDir.
 MinBra= 0 MaxBra= 3 Meth= 1.
 IRaf=       0 NMat=  20 IRICut=      25 DoRegI=T DoRafI=T ISym2E=-1 JSym2E=1.
 E3=       -0.29473184D-01        EUMP3=      -0.34254264482D+03
 DE(CI)=     -0.19179212     E(CI)=       -342.52279946    
 NORM(A)=   0.10591356D+01
 Iteration Nr.   2
 **********************
 DD1Dir will call FoFDir   1 times, MxPair=        20
 NAB=    10 NAA=     0 NBB=     0 NumPrc=  1.
 DE(CI)=     -0.19877943     E(CI)=       -342.52978677    
 NORM(A)=   0.10674589D+01
 Iteration Nr.   3
 **********************
 DD1Dir will call FoFDir   1 times, MxPair=        20
 NAB=    10 NAA=     0 NBB=     0 NumPrc=  1.
 DE(CI)=     -0.20125275     E(CI)=       -342.53226010    
 NORM(A)=   0.10697472D+01
 Iteration Nr.   4
 **********************
 DD1Dir will call FoFDir   1 times, MxPair=        20
 NAB=    10 NAA=     0 NBB=     0 NumPrc=  1.
 DE(CI)=     -0.20191526     E(CI)=       -342.53292261    
 NORM(A)=   0.10700669D+01
 Iteration Nr.   5
 **********************
 DD1Dir will call FoFDir   1 times, MxPair=        20
 NAB=    10 NAA=     0 NBB=     0 NumPrc=  1.
 DE(CI)=     -0.20191562     E(CI)=       -342.53292297    
 NORM(A)=   0.10700974D+01
 Iteration Nr.   6
 **********************
 DD1Dir will call FoFDir   1 times, MxPair=        20
 NAB=    10 NAA=     0 NBB=     0 NumPrc=  1.
 DE(CI)=     -0.20191390     E(CI)=       -342.53292124    
 NORM(A)=   0.10701324D+01
 Iteration Nr.   7
 **********************
 DD1Dir will call FoFDir   1 times, MxPair=        20
 NAB=    10 NAA=     0 NBB=     0 NumPrc=  1.
 DE(CI)=     -0.20192125     E(CI)=       -342.53292859    
 NORM(A)=   0.10701340D+01
 Iteration Nr.   8
 **********************
 DD1Dir will call FoFDir   1 times, MxPair=        20
 NAB=    10 NAA=     0 NBB=     0 NumPrc=  1.
 DE(CI)=     -0.20192067     E(CI)=       -342.53292802    
 NORM(A)=   0.10701312D+01
 Iteration Nr.   9
 **********************
 DD1Dir will call FoFDir   1 times, MxPair=        20
 NAB=    10 NAA=     0 NBB=     0 NumPrc=  1.
[...]
      1         15           0        0.000000    0.000000    0.000000
      2          1           0        0.000000    0.000000    0.900000
      3          1           0        0.898508    0.000000   -0.051808
      4          1           0       -0.054699   -0.897018   -0.048654
 ---------------------------------------------------------------------
                    Distance matrix (angstroms):
                    1          2          3          4
     1  P    0.000000
     2  H    0.900000   0.000000
     3  H    0.900000   1.308913   0.000000
     4  H    0.900000   1.306743   1.308913   0.000000
 Stoichiometry    H3P
 Framework group  CS[SG(HP),X(H2)]
 Deg. of freedom     4
 Full point group                 CS      NOp   2
 Largest Abelian subgroup         CS      NOp   2
 Largest concise Abelian subgroup CS      NOp   2
                         Standard orientation:                         
 ---------------------------------------------------------------------
 Center     Atomic      Atomic             Coordinates (Angstroms)
 Number     Number       Type             X           Y           Z
 ---------------------------------------------------------------------
      1         15           0        0.000000    0.081572    0.000000
      2          1           0       -0.378059   -0.408507    0.653371
      3          1           0        0.756118   -0.406573    0.000000
      4          1           0       -0.378059   -0.408507   -0.653371
 ---------------------------------------------------------------------
 Rotational constants (GHZ):    332.4178691    331.5841867    293.0139440
 Standard basis: CC-pVTZ (5D, 7F)
 There are    47 symmetry adapted basis functions of A'  symmetry.
 There are    29 symmetry adapted basis functions of A"  symmetry.
 Integral buffers will be    262144 words long.
 Raffenetti 1 integral format.
 Two-electron integral symmetry is turned on.
    76 basis functions,   146 primitive gaussians,    84 cartesian basis functions
     9 alpha electrons        9 beta electrons
       nuclear repulsion energy        27.6723943562 Hartrees.
 NAtoms=    4 NActive=    4 NUniq=    3 SFac= 1.78D+00 NAtFMM=   50 NAOKFM=F Big=F
 One-electron integrals computed using PRISM.
 NBasis=    76 RedAO= T  NBF=    47    29
 NBsUse=    76 1.00D-06 NBFU=    47    29
 Initial guess read from the read-write file.
 B after Tr=     0.000000    0.000000    0.000000
         Rot=    1.000000    0.000000    0.000000    0.000000 Ang=   0.00 deg.
 Initial guess orbital symmetries:
       Occupied  (A') (A') (A') (A") (A') (A') (A') (A") (A')
       Virtual   (A') (A") (A') (A') (A") (A') (A') (A") (A') (A")
                 (A') (A') (A') (A") (A') (A') (A") (A") (A') (A")
                 (A') (A') (A") (A') (A") (A') (A') (A') (A") (A')
                 (A") (A") (A') (A') (A') (A") (A') (A") (A') (A')
                 (A') (A") (A') (A") (A') (A") (A") (A') (A") (A')
                 (A") (A') (A") (A') (A') (A') (A") (A") (A') (A")
                 (A') (A") (A') (A") (A') (A') (A')
 Harris functional with IExCor=  205 diagonalized for initial guess.
 ExpMin= 9.71D-02 ExpMax= 3.12D+05 ExpMxC= 9.87D+02 IAcc=2 IRadAn=         0 AccDes= 0.00D+00
 HarFok:  IExCor=  205 AccDes= 0.00D+00 IRadAn=         0 IDoV= 1
 ScaDFX=  1.000000  1.000000  1.000000  1.000000
 FoFCou: FMM=F IPFlag=           0 FMFlag=      100000 FMFlg1=           0
         NFxFlg=           0 DoJE=T BraDBF=F KetDBF=T FulRan=T
         Omega=  0.000000  0.000000  1.000000  0.000000  0.000000 ICntrl=     500 IOpCl=  0
         NMat0=    1 NMatS0=    1 NMatT0=    0 NMatD0=    1 NMtDS0=    0 NMtDT0=    0
         I1Cent=           4 NGrid=           0.
 Petite list used in FoFCou.
 Requested convergence on RMS density matrix=1.00D-08 within 128 cycles.
 Requested convergence on MAX density matrix=1.00D-06.
 Requested convergence on             energy=1.00D-06.
 No special actions if energy rises.
 Integral accuracy reduced to 1.0D-05 until final iterations.
 Initial convergence to 1.0D-05 achieved.  Increase integral accuracy.
 SCF Done:  E(RHF) =  -341.653859156     A.U. after   11 cycles
             Convg  =    0.2509D-08             -V/T =  1.9864
 ExpMin= 9.71D-02 ExpMax= 3.12D+05 ExpMxC= 9.87D+02 IAcc=3 IRadAn=         5 AccDes= 0.00D+00
 HarFok:  IExCor=  205 AccDes= 0.00D+00 IRadAn=         5 IDoV=-2
 ScaDFX=  1.000000  1.000000  1.000000  1.000000
 Range of M.O.s used for correlation:     6    76
 NBasis=    76 NAE=     9 NBE=     9 NFC=     5 NFV=     0
 NROrb=     71 NOA=     4 NOB=     4 NVA=    67 NVB=    67

 **** Warning!!: The largest alpha MO coefficient is  0.25807931D+02

 Semi-Direct transformation.
 ModeAB=           4 MOrb=             4 LenV=       5999282
 LASXX=        43699 LTotXX=       43699 LenRXX=       93025
 LTotAB=       49326 MaxLAS=      762540 LenRXY=           0
 NonZer=      136724 LenScr=     1048064 LnRSAI=      762540
 LnScr1=     2096128 LExtra=           0 Total=      3999757
 MaxDsk=          -1 SrtSym=           T ITran=            3
 JobTyp=0 Pass  1:  I=   1 to   4.
 (rs|ai) integrals will be sorted in core.
 Spin components of T(2) and E(2):
     alpha-alpha T2 =       0.6113091660D-02 E2=     -0.1565346467D-01
     alpha-beta  T2 =       0.4749865794D-01 E2=     -0.1467356437D+00
     beta-beta   T2 =       0.6113091660D-02 E2=     -0.1565346467D-01
 ANorm=    0.1029429377D+01
 E2 =    -0.1780425730D+00 EUMP2 =    -0.34183190172919D+03
 Would need an additional         8397051 words for in-memory AO integral storage.
 Iterations=  50 Convergence= 0.100D-06
 Iteration Nr.   1
 **********************
 DD1Dir will call FoFDir   1 times, MxPair=        20
 NAB=    10 NAA=     0 NBB=     0 NumPrc=  1.
 Petite list used in FoFDir.
 MinBra= 0 MaxBra= 3 Meth= 1.
 IRaf=       0 NMat=  20 IRICut=      25 DoRegI=T DoRafI=T ISym2E=-1 JSym2E=1.
 E3=       -0.23840076D-01        EUMP3=      -0.34185574180D+03
 DE(CI)=     -0.19050470     E(CI)=       -341.84436385    
 NORM(A)=   0.10345393D+01
 Iteration Nr.   2
 **********************
 DD1Dir will call FoFDir   1 times, MxPair=        20
 NAB=    10 NAA=     0 NBB=     0 NumPrc=  1.
 DE(CI)=     -0.19387176     E(CI)=       -341.84773092    
 NORM(A)=   0.10362432D+01
 Iteration Nr.   3
 **********************
 DD1Dir will call FoFDir   1 times, MxPair=        20
 NAB=    10 NAA=     0 NBB=     0 NumPrc=  1.
 DE(CI)=     -0.19454626     E(CI)=       -341.84840542    
 NORM(A)=   0.10365388D+01
 Iteration Nr.   4
 **********************
 DD1Dir will call FoFDir   1 times, MxPair=        20
 NAB=    10 NAA=     0 NBB=     0 NumPrc=  1.
 DE(CI)=     -0.19467272     E(CI)=       -341.84853187    
 NORM(A)=   0.10365967D+01
 Iteration Nr.   5
 **********************
 DD1Dir will call FoFDir   1 times, MxPair=        20
 NAB=    10 NAA=     0 NBB=     0 NumPrc=  1.
 DE(CI)=     -0.19467872     E(CI)=       -341.84853788    
 NORM(A)=   0.10366002D+01
 Iteration Nr.   6
 **********************
 DD1Dir will call FoFDir   1 times, MxPair=        20
 NAB=    10 NAA=     0 NBB=     0 NumPrc=  1.
 DE(CI)=     -0.19467840     E(CI)=       -341.84853755    
 NORM(A)=   0.10366001D+01
 Iteration Nr.   7
 **********************
 DD1Dir will call FoFDir   1 times, MxPair=        20
 NAB=    10 NAA=     0 NBB=     0 NumPrc=  1.
 DE(CI)=     -0.19467837     E(CI)=       -341.84853752    
 NORM(A)=   0.10366001D+01
 Iteration Nr.   8
 **********************
 DD1Dir will call FoFDir   1 times, MxPair=        20
 NAB=    10 NAA=     0 NBB=     0 NumPrc=  1.
 DE(CI)=     -0.19467840     E(CI)=       -341.84853755    
 NORM(A)=   0.10366001D+01
 ***************************************************************
 Largest amplitude= 4.67D-02
 Variable Step   Value    
 -------- ---- -----------
     1      17    1.511781
 ---------------------------------------------------------------------------------------------------
                            Z-MATRIX (ANGSTROMS AND DEGREES)
   CD    Cent   Atom    N1       Length/X        N2       Alpha/Y        N3        Beta/Z          J
 ---------------------------------------------------------------------------------------------------
      1      1  P 
      2      2  H        1   0.800000(     1)
      3      3  H        1   0.800000(     2)      2   93.300(     4)
      4      4  H        1   0.800000(     3)      3   93.300(     5)      2  -93.300(     6)      0
 ---------------------------------------------------------------------------------------------------
                         Z-Matrix orientation:                         
 ---------------------------------------------------------------------
 Center     Atomic      Atomic             Coordinates (Angstroms)
 Number     Number       Type             X           Y           Z
 ---------------------------------------------------------------------
      1         15           0        0.000000    0.000000    0.000000
      2          1           0        0.000000    0.000000    0.800000
      3          1           0        0.798673    0.000000   -0.046051
      4          1           0       -0.048621   -0.797349   -0.043248
 ---------------------------------------------------------------------
                    Distance matrix (angstroms):
                    1          2          3          4
     1  P    0.000000
     2  H    0.800000   0.000000
     3  H    0.800000   1.163478   0.000000
     4  H    0.800000   1.161549   1.163478   0.000000
 Stoichiometry    H3P
 Framework group  CS[SG(HP),X(H2)]
 Deg. of freedom     4
 Full point group                 CS      NOp   2
 Largest Abelian subgroup         CS      NOp   2
 Largest concise Abelian subgroup CS      NOp   2
                         Standard orientation:                         
 ---------------------------------------------------------------------
 Center     Atomic      Atomic             Coordinates (Angstroms)
 Number     Number       Type             X           Y           Z
 ---------------------------------------------------------------------
      1         15           0        0.000000    0.072509    0.000000
      2          1           0       -0.336052   -0.363117    0.580775
      3          1           0        0.672104   -0.361399    0.000000
      4          1           0       -0.336052   -0.363117   -0.580775
 ---------------------------------------------------------------------
 Rotational constants (GHZ):    420.7163656    419.6612362    370.8457728
 Standard basis: CC-pVTZ (5D, 7F)
 There are    47 symmetry adapted basis functions of A'  symmetry.
 There are    29 symmetry adapted basis functions of A"  symmetry.
 Integral buffers will be    262144 words long.
 Raffenetti 1 integral format.
 Two-electron integral symmetry is turned on.
    76 basis functions,   146 primitive gaussians,    84 cartesian basis functions
     9 alpha electrons        9 beta electrons
       nuclear repulsion energy        31.1314436507 Hartrees.
 NAtoms=    4 NActive=    4 NUniq=    3 SFac= 1.78D+00 NAtFMM=   50 NAOKFM=F Big=F
 One-electron integrals computed using PRISM.
 NBasis=    76 RedAO= T  NBF=    47    29
 NBsUse=    76 1.00D-06 NBFU=    47    29
 Initial guess read from the read-write file.
 B after Tr=     0.000000    0.000000    0.000000
         Rot=    1.000000    0.000000    0.000000    0.000000 Ang=   0.00 deg.
 Initial guess orbital symmetries:
       Occupied  (A') (A') (A') (A") (A') (A') (A') (A") (A')
       Virtual   (A') (A") (A') (A') (A") (A') (A') (A") (A') (A")
                 (A') (A') (A") (A') (A') (A') (A") (A") (A') (A')
                 (A") (A') (A") (A') (A') (A") (A') (A") (A') (A")
                 (A') (A") (A') (A') (A') (A') (A") (A") (A') (A')
                 (A') (A") (A') (A") (A") (A') (A") (A') (A") (A')
                 (A") (A') (A") (A') (A') (A') (A") (A') (A") (A")
                 (A') (A") (A') (A") (A') (A') (A')
 Harris functional with IExCor=  205 diagonalized for initial guess.
 ExpMin= 9.71D-02 ExpMax= 3.12D+05 ExpMxC= 9.87D+02 IAcc=2 IRadAn=         0 AccDes= 0.00D+00
 HarFok:  IExCor=  205 AccDes= 0.00D+00 IRadAn=         0 IDoV= 1
 ScaDFX=  1.000000  1.000000  1.000000  1.000000
 FoFCou: FMM=F IPFlag=           0 FMFlag=      100000 FMFlg1=           0
         NFxFlg=           0 DoJE=T BraDBF=F KetDBF=T FulRan=T
         Omega=  0.000000  0.000000  1.000000  0.000000  0.000000 ICntrl=     500 IOpCl=  0
         NMat0=    1 NMatS0=    1 NMatT0=    0 NMatD0=    1 NMtDS0=    0 NMtDT0=    0
         I1Cent=           4 NGrid=           0.
 Petite list used in FoFCou.
 Requested convergence on RMS density matrix=1.00D-08 within 128 cycles.
 Requested convergence on MAX density matrix=1.00D-06.
 Requested convergence on             energy=1.00D-06.
 No special actions if energy rises.
 Integral accuracy reduced to 1.0D-05 until final iterations.
 Initial convergence to 1.0D-05 achieved.  Increase integral accuracy.
 SCF Done:  E(RHF) =  -341.000862696     A.U. after   11 cycles
             Convg  =    0.1439D-08             -V/T =  1.9801
 ExpMin= 9.71D-02 ExpMax= 3.12D+05 ExpMxC= 9.87D+02 IAcc=3 IRadAn=         5 AccDes= 0.00D+00
 HarFok:  IExCor=  205 AccDes= 0.00D+00 IRadAn=         5 IDoV=-2
 ScaDFX=  1.000000  1.000000  1.000000  1.000000
 Range of M.O.s used for correlation:     6    76
 NBasis=    76 NAE=     9 NBE=     9 NFC=     5 NFV=     0
 NROrb=     71 NOA=     4 NOB=     4 NVA=    67 NVB=    67

 **** Warning!!: The largest alpha MO coefficient is  0.29154693D+02

 Semi-Direct transformation.
 ModeAB=           4 MOrb=             4 LenV=       5999240
 LASXX=        43699 LTotXX=       43699 LenRXX=       93025
 LTotAB=       49326 MaxLAS=      762540 LenRXY=           0
 NonZer=      136724 LenScr=     1048064 LnRSAI=      762540
 LnScr1=     2096128 LExtra=           0 Total=      3999757
 MaxDsk=          -1 SrtSym=           T ITran=            3
 JobTyp=0 Pass  1:  I=   1 to   4.
 (rs|ai) integrals will be sorted in core.
 Spin components of T(2) and E(2):
     alpha-alpha T2 =       0.6183553751D-02 E2=     -0.1640023315D-01
     alpha-beta  T2 =       0.4703446810D-01 E2=     -0.1495706859D+00
     beta-beta   T2 =       0.6183553751D-02 E2=     -0.1640023315D-01
 ANorm=    0.1029272352D+01
 E2 =    -0.1823711522D+00 EUMP2 =    -0.34118323384826D+03
 Would need an additional         8397051 words for in-memory AO integral storage.
 Iterations=  50 Convergence= 0.100D-06
 Iteration Nr.   1
 **********************
 DD1Dir will call FoFDir   1 times, MxPair=        20
 NAB=    10 NAA=     0 NBB=     0 NumPrc=  1.
 Petite list used in FoFDir.
 MinBra= 0 MaxBra= 3 Meth= 1.
 IRaf=       0 NMat=  20 IRICut=      25 DoRegI=T DoRafI=T ISym2E=-1 JSym2E=1.
 E3=       -0.23976603D-01        EUMP3=      -0.34120721045D+03
 DE(CI)=     -0.19478192     E(CI)=       -341.19564462    
 NORM(A)=   0.10341865D+01
 Iteration Nr.   2
 **********************
 DD1Dir will call FoFDir   1 times, MxPair=        20
 NAB=    10 NAA=     0 NBB=     0 NumPrc=  1.
 DE(CI)=     -0.19815509     E(CI)=       -341.19901778    
 NORM(A)=   0.10358760D+01
 Iteration Nr.   3
 **********************
 DD1Dir will call FoFDir   1 times, MxPair=        20
 NAB=    10 NAA=     0 NBB=     0 NumPrc=  1.
 DE(CI)=     -0.19884461     E(CI)=       -341.19970731    
 NORM(A)=   0.10361748D+01
 Iteration Nr.   4
 **********************
 DD1Dir will call FoFDir   1 times, MxPair=        20
 NAB=    10 NAA=     0 NBB=     0 NumPrc=  1.
 DE(CI)=     -0.19897500     E(CI)=       -341.19983769    
 NORM(A)=   0.10362320D+01
 Iteration Nr.   5
 **********************
 DD1Dir will call FoFDir   1 times, MxPair=        20
 NAB=    10 NAA=     0 NBB=     0 NumPrc=  1.
 DE(CI)=     -0.19898097     E(CI)=       -341.19984367    
 NORM(A)=   0.10362350D+01
 Iteration Nr.   6
 **********************
 DD1Dir will call FoFDir   1 times, MxPair=        20
 NAB=    10 NAA=     0 NBB=     0 NumPrc=  1.
 DE(CI)=     -0.19898056     E(CI)=       -341.19984326    
 NORM(A)=   0.10362349D+01
 Iteration Nr.   7
 **********************
 DD1Dir will call FoFDir   1 times, MxPair=        20
 NAB=    10 NAA=     0 NBB=     0 NumPrc=  1.
 DE(CI)=     -0.19898054     E(CI)=       -341.19984323    
 NORM(A)=   0.10362349D+01
 Iteration Nr.   8
 **********************
 DD1Dir will call FoFDir   1 times, MxPair=        20
 NAB=    10 NAA=     0 NBB=     0 NumPrc=  1.
 DE(CI)=     -0.19898057     E(CI)=       -341.19984327    
 NORM(A)=   0.10362349D+01
 ***************************************************************
 Largest amplitude= 4.71D-02
 Scan completed.

 Summary of the potential surface scan:
   N      B1          SCF          MP2          MP3    
 ----  ---------  -----------  -----------  -----------
    1     2.5000   -342.07573   -342.29847   -342.33482
    2     2.4000   -342.11417   -342.32800   -342.36340
    3     2.3000   -342.15464   -342.36046   -342.39475
    4     2.2000   -342.19696   -342.39564   -342.42874
    5     2.1000   -342.24084   -342.43321   -342.46509
    6     2.0000   -342.28578   -342.47266   -342.50331
    7     1.9000   -342.33101   -342.51317   -342.54264
    8     1.8000   -342.37531   -342.55353   -342.58188
    9     1.7000   -342.41681   -342.59185   -342.61918
   10     1.6000   -342.45263   -342.62525   -342.65166
   11     1.5000   -342.47834   -342.64934   -342.67495
   12     1.4000   -342.48722   -342.65739   -342.68234
   13     1.3000   -342.46902   -342.63917   -342.66361
   14     1.2000   -342.40811   -342.57904   -342.60312
   15     1.1000   -342.28040   -342.45290   -342.47677
   16     1.0000   -342.04859   -342.22344   -342.24723
   17     0.9000   -341.65386   -341.83190   -341.85574
   18     0.8000   -341.00086   -341.18323   -341.20721
 ----  ---------  -----------  -----------  -----------
  
 1|1|UNPC-DESKTOP-RA5CP68|Scan|RCISD-FC|CC-pVTZ|H3P1|FELIPE|27-Nov-2023
 |1||# scan rcisd/cc-pVTZ guess=mix||PH3-DIS-cc-pVTZ-cisd||0,1|P|H,1,B1
 |H,1,B1,2,93.3|H,1,B1,3,93.3,2,-93.3,0||B1=2.5,s,17,-0.1||Version=IA32
 W-G09RevB.01|HF=-342.075728,-342.1141692,-342.1546375,-342.1969608,-34
 2.2408388,-342.2857799,-342.3310073,-342.3753101,-342.4168135,-342.452
 6311,-342.4783436,-342.4872208,-342.4690243,-342.4081092,-342.2804033,
 -342.0485878,-341.6538592,-341.0008627|MP2=-342.298475,-342.3280035,-3
 42.3604597,-342.395641,-342.4332144,-342.4726586,-342.5131716,-342.553
 5272,-342.5918472,-342.6252523,-342.6493376,-342.6573863,-342.6391682,
 -342.5790367,-342.4529047,-342.2234414,-341.8319017,-341.1832338|MP3=-
 342.3348178,-342.3633952,-342.3947495,-342.4287411,-342.465089,-342.50
 33131,-342.5426448,-342.5818843,-342.6191758,-342.6516601,-342.674949,
 -342.6823392,-342.6636092,-342.6031155,-342.4767682,-342.2472303,-341.
 8557418,-341.2072105|CISD=-342.315862,-342.3469235,-342.3803159,-342.4
 159456,-342.4535866,-342.4928176,-342.5329273,-342.5727683,-342.610529
 6,-342.643387,-342.6669775,-342.6746143,-342.6560848,-342.5957492,-342
 .4695161,-342.2400404,-341.8485376,-341.1998433|RMSD=9.571e-009,3.092e
 -009,2.187e-009,1.742e-009,2.382e-009,2.108e-009,1.847e-009,1.576e-009
 ,7.304e-009,4.434e-009,2.836e-009,2.555e-009,2.013e-009,2.366e-009,3.7
 26e-009,1.073e-009,2.509e-009,1.439e-009|PG=CS [SG(H1P1),X(H2)]||@


 SEE YOU NOW,
 YOUR BAIT OF FALSEHOOD TAKES THIS CARP OF TRUTH.
 AND THUS DO WE OF WISDOM AND OF REACH...
 BY INDIRECTIONS FIND DIRECTIONS OUT.    -- HAMLET, II, 1
 Job cpu time:  0 days  0 hours  2 minutes 52.0 seconds.
 File lengths (MBytes):  RWF=     35 Int=      0 D2E=      0 Chk=      1 Scr=      1
 Normal termination of Gaussian 09 at Mon Nov 27 18:31:45 2023.
