 Entering Link 1 = C:\G09W\l1.exe PID=     23616.
  
 Copyright (c) 1988,1990,1992,1993,1995,1998,2003,2009,2010,
            Gaussian, Inc.  All Rights Reserved.
  
 This is part of the Gaussian(R) 09 program.  It is based on
 the Gaussian(R) 03 system (copyright 2003, Gaussian, Inc.),
 the Gaussian(R) 98 system (copyright 1998, Gaussian, Inc.),
 the Gaussian(R) 94 system (copyright 1995, Gaussian, Inc.),
 the Gaussian 92(TM) system (copyright 1992, Gaussian, Inc.),
 the Gaussian 90(TM) system (copyright 1990, Gaussian, Inc.),
 the Gaussian 88(TM) system (copyright 1988, Gaussian, Inc.),
 the Gaussian 86(TM) system (copyright 1986, Carnegie Mellon
 University), and the Gaussian 82(TM) system (copyright 1983,
 Carnegie Mellon University). Gaussian is a federally registered
 trademark of Gaussian, Inc.
  
 This software contains proprietary and confidential information,
 including trade secrets, belonging to Gaussian, Inc.
  
 This software is provided under written license and may be
 used, copied, transmitted, or stored only in accord with that
 written license.
  
 The following legend is applicable only to US Government
 contracts under FAR:
  
                    RESTRICTED RIGHTS LEGEND
  
 Use, reproduction and disclosure by the US Government is
 subject to restrictions as set forth in subparagraphs (a)
 and (c) of the Commercial Computer Software - Restricted
 Rights clause in FAR 52.227-19.
  
 Gaussian, Inc.
 340 Quinnipiac St., Bldg. 40, Wallingford CT 06492
  
  
 ---------------------------------------------------------------
 Warning -- This program may not be used in any manner that
 competes with the business of Gaussian, Inc. or will provide
 assistance to any competitor of Gaussian, Inc.  The licensee
 of this program is prohibited from giving any competitor of
 Gaussian, Inc. access to this program.  By using this program,
 the user acknowledges that Gaussian, Inc. is engaged in the
 business of creating and licensing software in the field of
 computational chemistry and represents and warrants to the
 licensee that it is not a competitor of Gaussian, Inc. and that
 it will not use this program in any manner prohibited above.
 ---------------------------------------------------------------
  

 Cite this work as:
 Gaussian 09, Revision B.01,
 M. J. Frisch, G. W. Trucks, H. B. Schlegel, G. E. Scuseria, 
 M. A. Robb, J. R. Cheeseman, G. Scalmani, V. Barone, B. Mennucci, 
 G. A. Petersson, H. Nakatsuji, M. Caricato, X. Li, H. P. Hratchian, 
 A. F. Izmaylov, J. Bloino, G. Zheng, J. L. Sonnenberg, M. Hada, 
 M. Ehara, K. Toyota, R. Fukuda, J. Hasegawa, M. Ishida, T. Nakajima, 
 Y. Honda, O. Kitao, H. Nakai, T. Vreven, J. A. Montgomery, Jr., 
 J. E. Peralta, F. Ogliaro, M. Bearpark, J. J. Heyd, E. Brothers, 
 K. N. Kudin, V. N. Staroverov, T. Keith, R. Kobayashi, J. Normand, 
 K. Raghavachari, A. Rendell, J. C. Burant, S. S. Iyengar, J. Tomasi, 
 M. Cossi, N. Rega, J. M. Millam, M. Klene, J. E. Knox, J. B. Cross, 
 V. Bakken, C. Adamo, J. Jaramillo, R. Gomperts, R. E. Stratmann, 
 O. Yazyev, A. J. Austin, R. Cammi, C. Pomelli, J. W. Ochterski, 
 R. L. Martin, K. Morokuma, V. G. Zakrzewski, G. A. Voth, 
 P. Salvador, J. J. Dannenberg, S. Dapprich, A. D. Daniels, 
 O. Farkas, J. B. Foresman, J. V. Ortiz, J. Cioslowski, 
 and D. J. Fox, Gaussian, Inc., Wallingford CT, 2010.
 
 ******************************************
 Gaussian 09:  IA32W-G09RevB.01 12-Aug-2010
                07-Nov-2023 
 ******************************************
 %chk=PH3-CHARGE2-HF-MULT1.chk
 %mem=6MW
 %nproc=1
 Will use up to    1 processors via shared memory.
 -------------------
 # hf/3-21g pop=full
 -------------------
 1/38=1/1;
 2/12=2,17=6,18=5,40=1/2;
 3/5=5,11=9,16=1,25=1,30=1/1,2,3;
 4//1;
 5/5=2,38=5/2;
 6/7=3,28=1/1;
 99/5=1,9=1/99;
 --------------------
 PH3-CHARGE2-HF-MULT1
 --------------------
 Symbolic Z-matrix:
 Charge =  2 Multiplicity = 1
 P1                    0.        0.        0. 
 H2                    0.       -1.1932   -0.7717 
 H3                    1.0333    0.5966   -0.7717 
 H4                   -1.0333    0.5966   -0.7717 
 
                          Input orientation:                          
 ---------------------------------------------------------------------
 Center     Atomic      Atomic             Coordinates (Angstroms)
 Number     Number       Type             X           Y           Z
 ---------------------------------------------------------------------
      1         15           0        0.000000    0.000000    0.000000
      2          1           0        0.000000   -1.193200   -0.771700
      3          1           0        1.033300    0.596600   -0.771700
      4          1           0       -1.033300    0.596600   -0.771700
 ---------------------------------------------------------------------
                    Distance matrix (angstroms):
                    1          2          3          4
     1  P    0.000000
     2  H    1.421002   0.000000
     3  H    1.420972   2.066662   0.000000
     4  H    1.420972   2.066662   2.066600   0.000000
 Stoichiometry    H3P(2+)
 Framework group  CS[SG(HP),X(H2)]
 Deg. of freedom     4
 Full point group                 CS      NOp   2
 Largest Abelian subgroup         CS      NOp   2
 Largest concise Abelian subgroup CS      NOp   2
                         Standard orientation:                         
 ---------------------------------------------------------------------
 Center     Atomic      Atomic             Coordinates (Angstroms)
 Number     Number       Type             X           Y           Z
 ---------------------------------------------------------------------
      1         15           0        0.000000    0.128617    0.000000
      2          1           0       -1.193200   -0.643083    0.000000
      3          1           0        0.596600   -0.643083    1.033300
      4          1           0        0.596600   -0.643083   -1.033300
 ---------------------------------------------------------------------
 Rotational constants (GHZ):    133.2559896    133.2499140    117.4090990
 Standard basis: 3-21G (6D, 7F)
 There are    14 symmetry adapted basis functions of A'  symmetry.
 There are     5 symmetry adapted basis functions of A"  symmetry.
 Integral buffers will be    262144 words long.
 Raffenetti 1 integral format.
 Two-electron integral symmetry is turned on.
    19 basis functions,    36 primitive gaussians,    19 cartesian basis functions
     8 alpha electrons        8 beta electrons
       nuclear repulsion energy        17.5262806456 Hartrees.
 NAtoms=    4 NActive=    4 NUniq=    3 SFac= 1.78D+00 NAtFMM=   50 NAOKFM=F Big=F
 One-electron integrals computed using PRISM.
 NBasis=    19 RedAO= T  NBF=    14     5
 NBsUse=    19 1.00D-06 NBFU=    14     5
 Harris functional with IExCor=  205 diagonalized for initial guess.
 ExpMin= 1.23D-01 ExpMax= 1.05D+03 ExpMxC= 1.05D+03 IAcc=1 IRadAn=         1 AccDes= 0.00D+00
 HarFok:  IExCor=  205 AccDes= 0.00D+00 IRadAn=         1 IDoV= 1
 ScaDFX=  1.000000  1.000000  1.000000  1.000000
 FoFCou: FMM=F IPFlag=           0 FMFlag=      100000 FMFlg1=           0
         NFxFlg=           0 DoJE=T BraDBF=F KetDBF=T FulRan=T
         Omega=  0.000000  0.000000  1.000000  0.000000  0.000000 ICntrl=     500 IOpCl=  0
         NMat0=    1 NMatS0=    1 NMatT0=    0 NMatD0=    1 NMtDS0=    0 NMtDT0=    0
         I1Cent=           4 NGrid=           0.
 Petite list used in FoFCou.
 Initial guess orbital symmetries:
       Occupied  (A') (A') (A") (A') (A') (A') (A') (A")
       Virtual   (A') (A") (A') (A') (A") (A') (A') (A') (A') (A")
                 (A')
 The electronic state of the initial guess is 1-A'.
 Requested convergence on RMS density matrix=1.00D-08 within 128 cycles.
 Requested convergence on MAX density matrix=1.00D-06.
 Requested convergence on             energy=1.00D-06.
 No special actions if energy rises.
 Keep R1 ints in memory in canonical form, NReq=837892.
 SCF Done:  E(RHF) =  -339.605140769     A.U. after   10 cycles
             Convg  =    0.4934D-08             -V/T =  2.0000

 **********************************************************************

            Population analysis using the SCF density.

 **********************************************************************

 Orbital symmetries:
       Occupied  (A') (A') (A') (A') (A") (A') (A') (A")
       Virtual   (A') (A') (A") (A') (A") (A') (A') (A') (A') (A")
                 (A')
 The electronic state is 1-A'.
 Alpha  occ. eigenvalues --  -80.13997  -8.20582  -6.09088  -6.08914  -6.08914
 Alpha  occ. eigenvalues --   -1.49920  -1.12910  -1.12910
 Alpha virt. eigenvalues --   -0.71229  -0.37065  -0.37065  -0.26174   0.02482
 Alpha virt. eigenvalues --    0.02482   0.02937   0.17614   0.65096   0.69683
 Alpha virt. eigenvalues --    0.69684
     Molecular Orbital Coefficients:
                           1         2         3         4         5
                           O         O         O         O         O
     Eigenvalues --   -80.13997  -8.20582  -6.09088  -6.08914  -6.08914
   1 1   P  1S          0.98704  -0.29574   0.00336   0.00000   0.00000
   2        2S          0.04866   0.99777  -0.01193   0.00000   0.00000
   3        2PX         0.00000   0.00000  -0.00003   0.97394   0.00000
   4        2PY         0.00003   0.01182   0.97239   0.00003   0.00000
   5        2PZ         0.00000   0.00000   0.00000   0.00000   0.97394
   6        3S         -0.01544   0.12883  -0.00482   0.00000   0.00000
   7        3PX         0.00000   0.00000   0.00000   0.08470   0.00000
   8        3PY         0.00031  -0.00112   0.08945   0.00000   0.00000
   9        3PZ         0.00000   0.00000   0.00000   0.00000   0.08470
  10        4S          0.01063  -0.08534   0.01582   0.00000   0.00000
  11        4PX         0.00000   0.00000   0.00000  -0.02844   0.00000
  12        4PY        -0.00208   0.01996  -0.03340   0.00000   0.00000
  13        4PZ         0.00000   0.00000   0.00000   0.00000  -0.02844
  14 2   H  1S          0.00085  -0.00439   0.00358   0.00557   0.00000
  15        2S         -0.00233   0.02092  -0.00885  -0.00802   0.00000
  16 3   H  1S          0.00085  -0.00439   0.00358  -0.00278  -0.00482
  17        2S         -0.00233   0.02092  -0.00885   0.00401   0.00695
  18 4   H  1S          0.00085  -0.00439   0.00358  -0.00278   0.00482
  19        2S         -0.00233   0.02092  -0.00885   0.00401  -0.00695
                           6         7         8         9        10
                           O         O         O         V         V
     Eigenvalues --    -1.49920  -1.12910  -1.12910  -0.71229  -0.37065
   1 1   P  1S          0.06855   0.00000   0.00000   0.02900   0.00000
   2        2S         -0.36604   0.00001   0.00000  -0.15760   0.00001
   3        2PX         0.00000  -0.23018   0.00000   0.00000  -0.15146
   4        2PY         0.05521   0.00001   0.00000  -0.22906  -0.00001
   5        2PZ         0.00000   0.00000  -0.23018   0.00000   0.00000
   6        3S          0.49067  -0.00001   0.00000   0.23234  -0.00003
   7        3PX         0.00001   0.51437   0.00000   0.00001   0.34193
   8        3PY        -0.11335  -0.00001   0.00000   0.47278   0.00002
   9        3PZ         0.00000   0.00000   0.51437   0.00000   0.00000
  10        4S          0.46040  -0.00003   0.00000   0.28832  -0.00002
  11        4PX         0.00000   0.19516   0.00000   0.00001   1.05008
  12        4PY        -0.08798   0.00000   0.00000   0.43367   0.00003
  13        4PZ         0.00000   0.00000   0.19515   0.00000   0.00000
  14 2   H  1S          0.12415  -0.24811   0.00000  -0.09162   0.21107
  15        2S          0.00397  -0.24562   0.00000  -0.08471   1.09201
  16 3   H  1S          0.12416   0.12406   0.21487  -0.09161  -0.10552
  17        2S          0.00398   0.12281   0.21272  -0.08470  -0.54595
  18 4   H  1S          0.12416   0.12406  -0.21487  -0.09161  -0.10552
  19        2S          0.00398   0.12281  -0.21272  -0.08470  -0.54595
                          11        12        13        14        15
                           V         V         V         V         V
     Eigenvalues --    -0.37065  -0.26174   0.02482   0.02482   0.02937
   1 1   P  1S          0.00000   0.04850   0.00000   0.00000   0.01936
   2        2S          0.00000  -0.26254   0.00000  -0.00001  -0.07228
   3        2PX         0.00000  -0.00001   0.00000   0.31298  -0.00004
   4        2PY         0.00000   0.10832   0.00000  -0.00005  -0.32889
   5        2PZ        -0.15146   0.00000   0.31298   0.00000   0.00000
   6        3S          0.00000   0.58477   0.00000   0.00000   0.51906
   7        3PX         0.00000   0.00002   0.00000  -1.21708   0.00017
   8        3PY         0.00000  -0.25939   0.00000   0.00018   1.21971
   9        3PZ         0.34193   0.00000  -1.21707   0.00000   0.00000
  10        4S          0.00000   1.22782   0.00000   0.00007  -0.55288
  11        4PX         0.00000   0.00010   0.00000   1.36718  -0.00020
  12        4PY         0.00000  -1.04937   0.00000  -0.00022  -1.11369
  13        4PZ         1.05008   0.00000   1.36715   0.00000   0.00000
  14 2   H  1S          0.00000  -0.08352   0.00000   0.09954  -0.02676
  15        2S          0.00000  -1.02870   0.00000   0.11403   0.04638
  16 3   H  1S         -0.18279  -0.08353  -0.08622  -0.04979  -0.02675
  17        2S         -0.94568  -1.02885  -0.09875  -0.05706   0.04642
  18 4   H  1S          0.18279  -0.08353   0.08622  -0.04979  -0.02675
  19        2S          0.94568  -1.02885   0.09875  -0.05706   0.04642
                          16        17        18        19
                           V         V         V         V
     Eigenvalues --     0.17614   0.65096   0.69683   0.69684
   1 1   P  1S         -0.04128  -0.02692   0.00000  -0.00001
   2        2S          0.05004   0.07838   0.00000   0.00002
   3        2PX        -0.00001  -0.00002   0.00000   0.11537
   4        2PY        -0.04840  -0.11144   0.00000  -0.00002
   5        2PZ         0.00000   0.00000  -0.11538   0.00000
   6        3S         -2.05467  -0.88311   0.00000  -0.00017
   7        3PX         0.00006   0.00004   0.00000  -0.33044
   8        3PY         0.30700   0.34798   0.00000   0.00008
   9        3PZ         0.00000   0.00000   0.33046   0.00000
  10        4S          4.23955   2.57006   0.00000   0.00049
  11        4PX        -0.00001  -0.00010   0.00000   0.76311
  12        4PY        -1.77565  -1.15629   0.00000  -0.00023
  13        4PZ         0.00000   0.00000  -0.76313   0.00000
  14 2   H  1S         -0.21547   0.72514   0.00000  -1.08312
  15        2S         -1.26263  -1.43196   0.00000   1.47378
  16 3   H  1S         -0.21547   0.72486  -0.93812   0.54175
  17        2S         -1.26267  -1.43161   1.27658  -0.73728
  18 4   H  1S         -0.21547   0.72486   0.93812   0.54175
  19        2S         -1.26267  -1.43161  -1.27658  -0.73728
     Density Matrix:
                           1         2         3         4         5
   1 1   P  1S          2.13284
   2        2S         -0.54437   2.26407
   3        2PX         0.00000   0.00000   2.00309
   4        2PY         0.00716  -0.04002   0.00000   1.89745
   5        2PZ         0.00000   0.00000   0.00000   0.00000   2.00309
   6        3S         -0.03944  -0.10350   0.00000   0.04784   0.00000
   7        3PX         0.00000   0.00000  -0.07182   0.00001   0.00000
   8        3PY        -0.01367   0.07865   0.00001   0.16142   0.00000
   9        3PZ         0.00000   0.00000   0.00000   0.00000  -0.07182
  10        4S          0.13469  -0.50668   0.00001   0.07957   0.00000
  11        4PX         0.00000   0.00000  -0.14523   0.00000   0.00000
  12        4PY        -0.02821   0.10485   0.00000  -0.07421   0.00000
  13        4PZ         0.00000   0.00000   0.00000   0.00000  -0.14523
  14 2   H  1S          0.02133  -0.09965   0.12507   0.02057   0.00000
  15        2S         -0.01649   0.03882   0.09745  -0.01627   0.00000
  16 3   H  1S          0.02133  -0.09965  -0.06254   0.02058  -0.10831
  17        2S         -0.01649   0.03883  -0.04873  -0.01627  -0.08440
  18 4   H  1S          0.02133  -0.09965  -0.06254   0.02058   0.10831
  19        2S         -0.01649   0.03883  -0.04873  -0.01627   0.08440
                           6         7         8         9        10
   6        3S          0.51523
   7        3PX         0.00000   0.54350
   8        3PY        -0.11240  -0.00001   0.04170
   9        3PZ         0.00000   0.00000   0.00000   0.54350
  10        4S          0.42933  -0.00002  -0.10135   0.00000   0.43922
  11        4PX         0.00000   0.19595  -0.00001   0.00000  -0.00001
  12        4PY        -0.08081   0.00000   0.01392   0.00000  -0.08552
  13        4PZ         0.00000   0.00000   0.00000   0.19595   0.00000
  14 2   H  1S          0.12065  -0.25430  -0.02749   0.00000   0.11521
  15        2S          0.00945  -0.25403  -0.00253   0.00000  -0.00023
  16 3   H  1S          0.12065   0.12715  -0.02750   0.22023   0.11520
  17        2S          0.00945   0.12702  -0.00254   0.22001  -0.00025
  18 4   H  1S          0.12065   0.12715  -0.02750  -0.22023   0.11520
  19        2S          0.00945   0.12702  -0.00254  -0.22001  -0.00025
                          11        12        13        14        15
  11        4PX         0.07779
  12        4PY         0.00000   0.01852
  13        4PZ         0.00000   0.00000   0.07779
  14 2   H  1S         -0.09716  -0.02227   0.00000   0.15407
  15        2S         -0.09541   0.00074   0.00000   0.12253   0.12186
  16 3   H  1S          0.04858  -0.02227   0.08414  -0.03070  -0.06016
  17        2S          0.04771   0.00074   0.08263  -0.06016  -0.05932
  18 4   H  1S          0.04858  -0.02227  -0.08414  -0.03070  -0.06016
  19        2S          0.04771   0.00074  -0.08263  -0.06016  -0.05932
                          16        17        18        19
  16 3   H  1S          0.15408
  17        2S          0.12253   0.12187
  18 4   H  1S         -0.03070  -0.06016   0.15408
  19        2S         -0.06016  -0.05932   0.12253   0.12187
    Full Mulliken population analysis:
                           1         2         3         4         5
   1 1   P  1S          2.13284
   2        2S         -0.13674   2.26407
   3        2PX         0.00000   0.00000   2.00309
   4        2PY         0.00000   0.00000   0.00000   1.89745
   5        2PZ         0.00000   0.00000   0.00000   0.00000   2.00309
   6        3S         -0.00134  -0.03658   0.00000   0.00000   0.00000
   7        3PX         0.00000   0.00000  -0.02172   0.00000   0.00000
   8        3PY         0.00000   0.00000   0.00000   0.04882   0.00000
   9        3PZ         0.00000   0.00000   0.00000   0.00000  -0.02172
  10        4S          0.00443  -0.12921   0.00000   0.00000   0.00000
  11        4PX         0.00000   0.00000  -0.01074   0.00000   0.00000
  12        4PY         0.00000   0.00000   0.00000  -0.00549   0.00000
  13        4PZ         0.00000   0.00000   0.00000   0.00000  -0.01074
  14 2   H  1S          0.00001  -0.00071  -0.00104  -0.00011   0.00000
  15        2S         -0.00020   0.00375  -0.00315   0.00034   0.00000
  16 3   H  1S          0.00001  -0.00071  -0.00026  -0.00011  -0.00078
  17        2S         -0.00020   0.00375  -0.00079   0.00034  -0.00236
  18 4   H  1S          0.00001  -0.00071  -0.00026  -0.00011  -0.00078
  19        2S         -0.00020   0.00375  -0.00079   0.00034  -0.00236
                           6         7         8         9        10
   6        3S          0.51523
   7        3PX         0.00000   0.54350
   8        3PY         0.00000   0.00000   0.04170
   9        3PZ         0.00000   0.00000   0.00000   0.54350
  10        4S          0.35806   0.00000   0.00000   0.00000   0.43922
  11        4PX         0.00000   0.12670   0.00000   0.00000   0.00000
  12        4PY         0.00000   0.00000   0.00900   0.00000   0.00000
  13        4PZ         0.00000   0.00000   0.00000   0.12670   0.00000
  14 2   H  1S          0.01774   0.05798   0.00405   0.00000   0.02776
  15        2S          0.00375   0.08022   0.00052   0.00000  -0.00013
  16 3   H  1S          0.01774   0.01450   0.00406   0.04349   0.02776
  17        2S          0.00375   0.02006   0.00052   0.06016  -0.00014
  18 4   H  1S          0.01774   0.01450   0.00406   0.04349   0.02776
  19        2S          0.00375   0.02006   0.00052   0.06016  -0.00014
                          11        12        13        14        15
  11        4PX         0.07779
  12        4PY         0.00000   0.01852
  13        4PZ         0.00000   0.00000   0.07779
  14 2   H  1S          0.03237   0.00480   0.00000   0.15407
  15        2S          0.05157  -0.00026   0.00000   0.07914   0.12186
  16 3   H  1S          0.00809   0.00480   0.02428  -0.00005  -0.00388
  17        2S          0.01289  -0.00026   0.03867  -0.00388  -0.01467
  18 4   H  1S          0.00809   0.00480   0.02428  -0.00005  -0.00388
  19        2S          0.01289  -0.00026   0.03867  -0.00388  -0.01467
                          16        17        18        19
  16 3   H  1S          0.15408
  17        2S          0.07914   0.12187
  18 4   H  1S         -0.00005  -0.00388   0.15408
  19        2S         -0.00388  -0.01467   0.07914   0.12187
     Gross orbital populations:
                           1
   1 1   P  1S          1.99862
   2        2S          1.97067
   3        2PX         1.96435
   4        2PY         1.94147
   5        2PZ         1.96435
   6        3S          0.89986
   7        3PX         0.85578
   8        3PY         0.11324
   9        3PZ         0.85578
  10        4S          0.75535
  11        4PX         0.31966
  12        4PY         0.03566
  13        4PZ         0.31965
  14 2   H  1S          0.36820
  15        2S          0.30031
  16 3   H  1S          0.36822
  17        2S          0.30031
  18 4   H  1S          0.36822
  19        2S          0.30031
          Condensed to atoms (all electrons):
              1          2          3          4
     1  P   13.156650   0.279259   0.279260   0.279260
     2  H    0.279259   0.434209  -0.022481  -0.022481
     3  H    0.279260  -0.022481   0.434235  -0.022483
     4  H    0.279260  -0.022481  -0.022483   0.434235
 Mulliken atomic charges:
              1
     1  P    1.005571
     2  H    0.331493
     3  H    0.331468
     4  H    0.331468
 Sum of Mulliken atomic charges =   2.00000
 Mulliken charges with hydrogens summed into heavy atoms:
              1
     1  P    2.000000
 Sum of Mulliken charges with hydrogens summed into heavy atoms =   2.00000
 Electronic spatial extent (au):  <R**2>=             37.0691
 Charge=              2.0000 electrons
 Dipole moment (field-independent basis, Debye):
    X=              0.0000    Y=              0.0244    Z=              0.0000  Tot=              0.0244
 Quadrupole moment (field-independent basis, Debye-Ang):
   XX=             -8.2823   YY=             -5.6286   ZZ=             -8.2828
   XY=              0.0002   XZ=              0.0000   YZ=              0.0000
 Traceless Quadrupole moment (field-independent basis, Debye-Ang):
   XX=             -0.8844   YY=              1.7693   ZZ=             -0.8849
   XY=              0.0002   XZ=              0.0000   YZ=              0.0000
 Octapole moment (field-independent basis, Debye-Ang**2):
  XXX=             -1.7200  YYY=              1.3901  ZZZ=              0.0000  XYY=              0.0000
  XXY=             -1.5552  XXZ=              0.0000  XZZ=              1.7197  YZZ=             -1.5549
  YYZ=              0.0000  XYZ=              0.0000
 Hexadecapole moment (field-independent basis, Debye-Ang**3):
 XXXX=            -17.1176 YYYY=             -9.8705 ZZZZ=            -17.1180 XXXY=              1.5100
 XXXZ=              0.0000 YYYX=              0.0001 YYYZ=              0.0000 ZZZX=              0.0000
 ZZZY=              0.0000 XXYY=             -3.5594 XXZZ=             -5.7060 YYZZ=             -3.5595
 XXYZ=              0.0000 YYXZ=              0.0000 ZZXY=             -1.5096
 N-N= 1.752628064564D+01 E-N=-8.331283454329D+02  KE= 3.396101819019D+02
 Symmetry A'   KE= 3.077621382960D+02
 Symmetry A"   KE= 3.184804360591D+01
 Orbital energies and kinetic energies (alpha):
                                 1                 2
   1         O               -80.139966        105.412415
   2         O                -8.205819         16.241804
   3         O                -6.090876         14.554065
   4         O                -6.089139         14.591477
   5         O                -6.089139         14.591477
   6         O                -1.499198          1.748776
   7         O                -1.129102          1.332532
   8         O                -1.129101          1.332545
   9         V                -0.712291          1.481355
  10         V                -0.370654          0.976544
  11         V                -0.370654          0.976535
  12         V                -0.261742          1.527656
  13         V                 0.024818          2.131334
  14         V                 0.024818          2.131339
  15         V                 0.029369          2.426514
  16         V                 0.176138          1.395400
  17         V                 0.650957          2.477295
  18         V                 0.696834          2.321991
  19         V                 0.696836          2.321986
 Total kinetic energy from orbitals= 3.396101819019D+02
 1|1|UNPC-DESKTOP-RA5CP68|SP|RHF|3-21G|H3P1(2+)|FELIPE|07-Nov-2023|0||#
  hf/3-21g pop=full||PH3-CHARGE2-HF-MULT1||2,1|P,0,0.,0.,0.|H,0,0.,-1.1
 932,-0.7717|H,0,1.0333,0.5966,-0.7717|H,0,-1.0333,0.5966,-0.7717||Vers
 ion=IA32W-G09RevB.01|State=1-A'|HF=-339.6051408|RMSD=4.934e-009|Dipole
 =0.,-0.0000133,0.0096016|Quadrupole=-0.6578833,-0.6575592,1.3154424,0.
 ,0.,0.000122|PG=CS [SG(H1P1),X(H2)]||@


 FAULTILY FAULTLESS, ICILY REGULAR, SPLENDIDLY NULL...
           MAUDE BY TENNYSON
 Job cpu time:  0 days  0 hours  0 minutes  0.0 seconds.
 File lengths (MBytes):  RWF=      5 Int=      0 D2E=      0 Chk=      1 Scr=      1
 Normal termination of Gaussian 09 at Tue Nov 07 19:10:06 2023.
