 Entering Link 1 = C:\G09W\l1.exe PID=     23780.
  
 Copyright (c) 1988,1990,1992,1993,1995,1998,2003,2009,2010,
            Gaussian, Inc.  All Rights Reserved.
  
 This is part of the Gaussian(R) 09 program.  It is based on
 the Gaussian(R) 03 system (copyright 2003, Gaussian, Inc.),
 the Gaussian(R) 98 system (copyright 1998, Gaussian, Inc.),
 the Gaussian(R) 94 system (copyright 1995, Gaussian, Inc.),
 the Gaussian 92(TM) system (copyright 1992, Gaussian, Inc.),
 the Gaussian 90(TM) system (copyright 1990, Gaussian, Inc.),
 the Gaussian 88(TM) system (copyright 1988, Gaussian, Inc.),
 the Gaussian 86(TM) system (copyright 1986, Carnegie Mellon
 University), and the Gaussian 82(TM) system (copyright 1983,
 Carnegie Mellon University). Gaussian is a federally registered
 trademark of Gaussian, Inc.
  
 This software contains proprietary and confidential information,
 including trade secrets, belonging to Gaussian, Inc.
  
 This software is provided under written license and may be
 used, copied, transmitted, or stored only in accord with that
 written license.
  
 The following legend is applicable only to US Government
 contracts under FAR:
  
                    RESTRICTED RIGHTS LEGEND
  
 Use, reproduction and disclosure by the US Government is
 subject to restrictions as set forth in subparagraphs (a)
 and (c) of the Commercial Computer Software - Restricted
 Rights clause in FAR 52.227-19.
  
 Gaussian, Inc.
 340 Quinnipiac St., Bldg. 40, Wallingford CT 06492
  
  
 ---------------------------------------------------------------
 Warning -- This program may not be used in any manner that
 competes with the business of Gaussian, Inc. or will provide
 assistance to any competitor of Gaussian, Inc.  The licensee
 of this program is prohibited from giving any competitor of
 Gaussian, Inc. access to this program.  By using this program,
 the user acknowledges that Gaussian, Inc. is engaged in the
 business of creating and licensing software in the field of
 computational chemistry and represents and warrants to the
 licensee that it is not a competitor of Gaussian, Inc. and that
 it will not use this program in any manner prohibited above.
 ---------------------------------------------------------------
  

 Cite this work as:
 Gaussian 09, Revision B.01,
 M. J. Frisch, G. W. Trucks, H. B. Schlegel, G. E. Scuseria, 
 M. A. Robb, J. R. Cheeseman, G. Scalmani, V. Barone, B. Mennucci, 
 G. A. Petersson, H. Nakatsuji, M. Caricato, X. Li, H. P. Hratchian, 
 A. F. Izmaylov, J. Bloino, G. Zheng, J. L. Sonnenberg, M. Hada, 
 M. Ehara, K. Toyota, R. Fukuda, J. Hasegawa, M. Ishida, T. Nakajima, 
 Y. Honda, O. Kitao, H. Nakai, T. Vreven, J. A. Montgomery, Jr., 
 J. E. Peralta, F. Ogliaro, M. Bearpark, J. J. Heyd, E. Brothers, 
 K. N. Kudin, V. N. Staroverov, T. Keith, R. Kobayashi, J. Normand, 
 K. Raghavachari, A. Rendell, J. C. Burant, S. S. Iyengar, J. Tomasi, 
 M. Cossi, N. Rega, J. M. Millam, M. Klene, J. E. Knox, J. B. Cross, 
 V. Bakken, C. Adamo, J. Jaramillo, R. Gomperts, R. E. Stratmann, 
 O. Yazyev, A. J. Austin, R. Cammi, C. Pomelli, J. W. Ochterski, 
 R. L. Martin, K. Morokuma, V. G. Zakrzewski, G. A. Voth, 
 P. Salvador, J. J. Dannenberg, S. Dapprich, A. D. Daniels, 
 O. Farkas, J. B. Foresman, J. V. Ortiz, J. Cioslowski, 
 and D. J. Fox, Gaussian, Inc., Wallingford CT, 2010.
 
 ******************************************
 Gaussian 09:  IA32W-G09RevB.01 12-Aug-2010
                07-Nov-2023 
 ******************************************
 %chk=PH3-CHARGE1-HF-MULT6.chk
 %mem=6MW
 %nproc=1
 Will use up to    1 processors via shared memory.
 -------------------
 # hf/3-21g pop=full
 -------------------
 1/38=1/1;
 2/12=2,17=6,18=5,40=1/2;
 3/5=5,11=9,16=1,25=1,30=1/1,2,3;
 4//1;
 5/5=2,38=5/2;
 6/7=3,28=1/1;
 99/5=1,9=1/99;
 --------------------
 PH3-CHARGE1-HF-MULT6
 --------------------
 Symbolic Z-matrix:
 Charge =  1 Multiplicity = 6
 P1                    0.        0.        0. 
 H2                    0.       -1.1932   -0.7717 
 H3                    1.0333    0.5966   -0.7717 
 H4                   -1.0333    0.5966   -0.7717 
 
                          Input orientation:                          
 ---------------------------------------------------------------------
 Center     Atomic      Atomic             Coordinates (Angstroms)
 Number     Number       Type             X           Y           Z
 ---------------------------------------------------------------------
      1         15           0        0.000000    0.000000    0.000000
      2          1           0        0.000000   -1.193200   -0.771700
      3          1           0        1.033300    0.596600   -0.771700
      4          1           0       -1.033300    0.596600   -0.771700
 ---------------------------------------------------------------------
                    Distance matrix (angstroms):
                    1          2          3          4
     1  P    0.000000
     2  H    1.421002   0.000000
     3  H    1.420972   2.066662   0.000000
     4  H    1.420972   2.066662   2.066600   0.000000
 Stoichiometry    H3P(1+,6)
 Framework group  CS[SG(HP),X(H2)]
 Deg. of freedom     4
 Full point group                 CS      NOp   2
 Largest Abelian subgroup         CS      NOp   2
 Largest concise Abelian subgroup CS      NOp   2
                         Standard orientation:                         
 ---------------------------------------------------------------------
 Center     Atomic      Atomic             Coordinates (Angstroms)
 Number     Number       Type             X           Y           Z
 ---------------------------------------------------------------------
      1         15           0        0.000000    0.128617    0.000000
      2          1           0       -1.193200   -0.643083    0.000000
      3          1           0        0.596600   -0.643083    1.033300
      4          1           0        0.596600   -0.643083   -1.033300
 ---------------------------------------------------------------------
 Rotational constants (GHZ):    133.2559896    133.2499140    117.4090990
 Standard basis: 3-21G (6D, 7F)
 There are    14 symmetry adapted basis functions of A'  symmetry.
 There are     5 symmetry adapted basis functions of A"  symmetry.
 Integral buffers will be    262144 words long.
 Raffenetti 2 integral format.
 Two-electron integral symmetry is turned on.
    19 basis functions,    36 primitive gaussians,    19 cartesian basis functions
    11 alpha electrons        6 beta electrons
       nuclear repulsion energy        17.5262806456 Hartrees.
 NAtoms=    4 NActive=    4 NUniq=    3 SFac= 1.78D+00 NAtFMM=   50 NAOKFM=F Big=F
 One-electron integrals computed using PRISM.
 NBasis=    19 RedAO= T  NBF=    14     5
 NBsUse=    19 1.00D-06 NBFU=    14     5
 Harris functional with IExCor=  205 diagonalized for initial guess.
 ExpMin= 1.23D-01 ExpMax= 1.05D+03 ExpMxC= 1.05D+03 IAcc=1 IRadAn=         1 AccDes= 0.00D+00
 HarFok:  IExCor=  205 AccDes= 0.00D+00 IRadAn=         1 IDoV= 1
 ScaDFX=  1.000000  1.000000  1.000000  1.000000
 FoFCou: FMM=F IPFlag=           0 FMFlag=      100000 FMFlg1=           0
         NFxFlg=           0 DoJE=T BraDBF=F KetDBF=T FulRan=T
         Omega=  0.000000  0.000000  1.000000  0.000000  0.000000 ICntrl=     500 IOpCl=  0
         NMat0=    1 NMatS0=    1 NMatT0=    0 NMatD0=    1 NMtDS0=    0 NMtDT0=    0
         I1Cent=           4 NGrid=           0.
 Petite list used in FoFCou.
 Initial guess orbital symmetries:
 Alpha Orbitals:
       Occupied  (A') (A') (A") (A') (A') (A') (A') (A") (A') (A")
                 (A')
       Virtual   (A') (A") (A') (A') (A') (A') (A") (A')
 Beta  Orbitals:
       Occupied  (A') (A') (A") (A') (A') (A')
       Virtual   (A') (A") (A') (A") (A') (A') (A") (A') (A') (A')
                 (A') (A") (A')
 The electronic state of the initial guess is 6-A'.
 Initial guess <Sx>= 0.0000 <Sy>= 0.0000 <Sz>= 2.5000 <S**2>= 8.7500 S= 2.5000
 Requested convergence on RMS density matrix=1.00D-08 within 128 cycles.
 Requested convergence on MAX density matrix=1.00D-06.
 Requested convergence on             energy=1.00D-06.
 No special actions if energy rises.
 Keep R1 and R2 ints in memory in canonical form, NReq=856044.
 SCF Done:  E(UHF) =  -339.753391637     A.U. after   12 cycles
             Convg  =    0.9293D-08             -V/T =  1.9969
 <Sx>= 0.0000 <Sy>= 0.0000 <Sz>= 2.5000 <S**2>= 8.7744 S= 2.5041
 <L.S>= 0.000000000000E+00
 Annihilation of the first spin contaminant:
 S**2 before annihilation     8.7744,   after     8.7500

 **********************************************************************

            Population analysis using the SCF density.

 **********************************************************************

 Orbital symmetries:
 Alpha Orbitals:
       Occupied  (A') (A') (A') (A") (A') (A') (A') (A") (A') (A')
                 (A")
       Virtual   (A') (A") (A') (A') (A') (A') (A") (A')
 Beta  Orbitals:
       Occupied  (A') (A') (A') (A') (A") (A')
       Virtual   (A") (A') (A') (A") (A') (A') (A") (A') (A') (A')
                 (A') (A") (A')
 The electronic state is 6-A'.
 Alpha  occ. eigenvalues --  -79.81220  -7.89057  -5.78396  -5.78396  -5.77441
 Alpha  occ. eigenvalues --   -1.36087  -1.01959  -1.01959  -0.88376  -0.50256
 Alpha  occ. eigenvalues --   -0.50255
 Alpha virt. eigenvalues --   -0.11435   0.23812   0.23812   0.26477   0.37605
 Alpha virt. eigenvalues --    0.80216   0.84626   0.84627
  Beta  occ. eigenvalues --  -79.78869  -7.86155  -5.74277  -5.73369  -5.73369
  Beta  occ. eigenvalues --   -1.05910
  Beta virt. eigenvalues --   -0.39793  -0.39792  -0.28034   0.00131   0.00132
  Beta virt. eigenvalues --    0.04345   0.34483   0.34483   0.36542   0.46638
  Beta virt. eigenvalues --    0.97402   1.02129   1.02131
     Alpha Molecular Orbital Coefficients:
                           1         2         3         4         5
                           O         O         O         O         O
     Eigenvalues --   -79.81220  -7.89057  -5.78396  -5.78396  -5.77441
   1 1   P  1S          0.98701  -0.29569   0.00000   0.00000  -0.00120
   2        2S          0.04877   0.99704   0.00000   0.00000   0.00414
   3        2PX         0.00000   0.00000   0.97347   0.00000  -0.00009
   4        2PY        -0.00011  -0.00206   0.00009   0.00000   0.97296
   5        2PZ         0.00000   0.00000   0.00000   0.97347   0.00000
   6        3S         -0.01552   0.13042   0.00000   0.00000  -0.00706
   7        3PX         0.00000   0.00000   0.08594   0.00000  -0.00001
   8        3PY         0.00034  -0.00467   0.00001   0.00000   0.08777
   9        3PZ         0.00000   0.00000   0.00000   0.08594   0.00000
  10        4S          0.01066  -0.08532   0.00000   0.00000   0.01722
  11        4PX         0.00000   0.00000  -0.02830   0.00000   0.00000
  12        4PY        -0.00211   0.02173   0.00000   0.00000  -0.03242
  13        4PZ         0.00000   0.00000   0.00000  -0.02830   0.00000
  14 2   H  1S          0.00086  -0.00470   0.00547   0.00000   0.00354
  15        2S         -0.00234   0.02120  -0.00801   0.00000  -0.00885
  16 3   H  1S          0.00086  -0.00470  -0.00274  -0.00474   0.00354
  17        2S         -0.00234   0.02120   0.00400   0.00693  -0.00885
  18 4   H  1S          0.00086  -0.00470  -0.00274   0.00474   0.00354
  19        2S         -0.00234   0.02120   0.00400  -0.00693  -0.00885
                           6         7         8         9        10
                           O         O         O         O         O
     Eigenvalues --    -1.36087  -1.01959  -1.01959  -0.88376  -0.50256
   1 1   P  1S          0.06698   0.00000   0.00000   0.03355   0.00000
   2        2S         -0.35649   0.00001   0.00000  -0.18456   0.00002
   3        2PX         0.00000  -0.20559   0.00000   0.00000  -0.20399
   4        2PY         0.03956   0.00000   0.00000  -0.22439  -0.00002
   5        2PZ         0.00000   0.00000  -0.20560   0.00000   0.00000
   6        3S          0.46332  -0.00001   0.00000   0.27004  -0.00004
   7        3PX         0.00000   0.44480   0.00000   0.00000   0.49985
   8        3PY        -0.06719  -0.00001   0.00000   0.48495   0.00005
   9        3PZ         0.00000   0.00000   0.44480   0.00000   0.00000
  10        4S          0.43375  -0.00002   0.00000   0.44513  -0.00007
  11        4PX         0.00000   0.14051   0.00000   0.00001   0.91122
  12        4PY        -0.06006   0.00000   0.00000   0.25427   0.00006
  13        4PZ         0.00000   0.00000   0.14051   0.00000   0.00000
  14 2   H  1S          0.14447  -0.30105   0.00000  -0.13944   0.24751
  15        2S          0.02693  -0.30159   0.00000  -0.18526   0.95163
  16 3   H  1S          0.14448   0.15053   0.26072  -0.13943  -0.12373
  17        2S          0.02693   0.15080   0.26119  -0.18525  -0.47571
  18 4   H  1S          0.14448   0.15053  -0.26072  -0.13943  -0.12373
  19        2S          0.02693   0.15080  -0.26119  -0.18525  -0.47571
                          11        12        13        14        15
                           O         V         V         V         V
     Eigenvalues --    -0.50255  -0.11435   0.23812   0.23812   0.26477
   1 1   P  1S          0.00000   0.04440   0.00000   0.00000  -0.02102
   2        2S          0.00000  -0.25421   0.00000   0.00000   0.08132
   3        2PX         0.00000  -0.00001   0.00000   0.30408   0.00000
   4        2PY         0.00000   0.16295   0.00000  -0.00001   0.30658
   5        2PZ        -0.20398   0.00000   0.30408   0.00000   0.00000
   6        3S          0.00000   0.38915   0.00000  -0.00005  -0.55910
   7        3PX         0.00000   0.00003   0.00000  -1.19490  -0.00002
   8        3PY         0.00000  -0.40136   0.00000   0.00003  -1.17050
   9        3PZ         0.49984   0.00000  -1.19489   0.00000   0.00000
  10        4S          0.00000   1.51671   0.00000   0.00007   0.49653
  11        4PX         0.00000   0.00015   0.00000   1.44040   0.00003
  12        4PY         0.00000  -1.10393   0.00000  -0.00005   1.20070
  13        4PZ         0.91122   0.00000   1.44037   0.00000   0.00000
  14 2   H  1S          0.00000  -0.10812   0.00000   0.11504   0.03133
  15        2S          0.00000  -1.06281   0.00000   0.20039   0.02167
  16 3   H  1S         -0.21434  -0.10815  -0.09965  -0.05754   0.03133
  17        2S         -0.82409  -1.06303  -0.17351  -0.10021   0.02164
  18 4   H  1S          0.21434  -0.10815   0.09965  -0.05754   0.03133
  19        2S          0.82409  -1.06303   0.17351  -0.10021   0.02164
                          16        17        18        19
                           V         V         V         V
     Eigenvalues --     0.37605   0.80216   0.84626   0.84627
   1 1   P  1S         -0.04454  -0.02812   0.00000   0.00000
   2        2S          0.07238   0.07466   0.00000   0.00002
   3        2PX        -0.00001   0.00000   0.00000   0.10843
   4        2PY        -0.04969  -0.11945   0.00000  -0.00002
   5        2PZ         0.00000   0.00000  -0.10844   0.00000
   6        3S         -2.04949  -0.97734   0.00000  -0.00014
   7        3PX         0.00005   0.00001   0.00000  -0.31028
   8        3PY         0.30902   0.37499   0.00000   0.00007
   9        3PZ         0.00000   0.00000   0.31031   0.00000
  10        4S          3.95624   2.84644   0.00000   0.00037
  11        4PX        -0.00002  -0.00005   0.00000   0.81697
  12        4PY        -1.63273  -1.27781   0.00000  -0.00017
  13        4PZ         0.00000   0.00000  -0.81699   0.00000
  14 2   H  1S         -0.24170   0.70159   0.00000  -1.06026
  15        2S         -1.08395  -1.54013   0.00000   1.54964
  16 3   H  1S         -0.24170   0.70142  -0.91828   0.53025
  17        2S         -1.08397  -1.53991   1.34221  -0.77510
  18 4   H  1S         -0.24170   0.70142   0.91828   0.53025
  19        2S         -1.08397  -1.53991  -1.34221  -0.77510
     Beta Molecular Orbital Coefficients:
                           1         2         3         4         5
                           O         O         O         O         O
     Eigenvalues --   -79.78869  -7.86155  -5.74277  -5.73369  -5.73369
   1 1   P  1S          0.98706  -0.29573  -0.00448   0.00000   0.00000
   2        2S          0.04858   0.99807   0.01522   0.00000   0.00000
   3        2PX         0.00000   0.00000  -0.00011   0.97288   0.00000
   4        2PY        -0.00012  -0.01342   0.97295   0.00011   0.00000
   5        2PZ         0.00000   0.00000   0.00000   0.00000   0.97288
   6        3S         -0.01538   0.12904  -0.00355   0.00000   0.00000
   7        3PX         0.00000   0.00000  -0.00001   0.08813   0.00000
   8        3PY         0.00036  -0.00488   0.08777   0.00001   0.00000
   9        3PZ         0.00000   0.00000   0.00000   0.00000   0.08813
  10        4S          0.01062  -0.08735   0.01400   0.00000   0.00000
  11        4PX         0.00000   0.00000   0.00000  -0.03084   0.00000
  12        4PY        -0.00210   0.02165  -0.03275   0.00000   0.00000
  13        4PZ         0.00000   0.00000   0.00000   0.00000  -0.03084
  14 2   H  1S          0.00086  -0.00488   0.00373   0.00602   0.00000
  15        2S         -0.00233   0.02152  -0.00830  -0.00903   0.00000
  16 3   H  1S          0.00086  -0.00488   0.00373  -0.00301  -0.00521
  17        2S         -0.00233   0.02152  -0.00830   0.00451   0.00782
  18 4   H  1S          0.00086  -0.00488   0.00373  -0.00301   0.00521
  19        2S         -0.00233   0.02152  -0.00830   0.00451  -0.00782
                           6         7         8         9        10
                           O         V         V         V         V
     Eigenvalues --    -1.05910  -0.39793  -0.39792  -0.28034   0.00131
   1 1   P  1S          0.06577   0.00000   0.00000   0.03163   0.00000
   2        2S         -0.35558   0.00000   0.00002  -0.17468   0.00000
   3        2PX        -0.00001   0.00000  -0.19840  -0.00001   0.00000
   4        2PY         0.10694   0.00000   0.00000  -0.19182   0.00000
   5        2PZ         0.00000  -0.19840   0.00000   0.00000  -0.11187
   6        3S          0.44236   0.00000  -0.00001   0.20385   0.00000
   7        3PX         0.00002   0.00000   0.38774   0.00002   0.00000
   8        3PY        -0.24211   0.00000   0.00000   0.34705   0.00000
   9        3PZ         0.00000   0.38773   0.00000   0.00000   0.19498
  10        4S          0.54301   0.00000  -0.00008   0.31620   0.00000
  11        4PX         0.00000   0.00000   0.29827   0.00002   0.00000
  12        4PY        -0.16644   0.00000   0.00001   0.59772   0.00000
  13        4PZ         0.00000   0.29824   0.00000   0.00000   1.23369
  14 2   H  1S          0.09521   0.00000  -0.19402  -0.05375   0.00000
  15        2S         -0.03148   0.00000  -0.30521  -0.02897   0.00000
  16 3   H  1S          0.09523   0.16804   0.09701  -0.05375  -0.12658
  17        2S         -0.03146   0.26436   0.15264  -0.02896  -1.03327
  18 4   H  1S          0.09523  -0.16804   0.09701  -0.05375   0.12658
  19        2S         -0.03146  -0.26436   0.15264  -0.02896   1.03327
                          11        12        13        14        15
                           V         V         V         V         V
     Eigenvalues --     0.00132   0.04345   0.34483   0.34483   0.36542
   1 1   P  1S          0.00000   0.04451   0.00000   0.00000  -0.01273
   2        2S         -0.00001  -0.24264   0.00000   0.00002   0.09816
   3        2PX        -0.11187   0.00000   0.00000  -0.34820   0.00007
   4        2PY         0.00001   0.10981   0.00000   0.00006   0.33698
   5        2PZ         0.00000   0.00000  -0.34819   0.00000   0.00000
   6        3S          0.00001   0.53200   0.00000   0.00011   0.13009
   7        3PX         0.19497   0.00001   0.00000   1.28305  -0.00027
   8        3PY        -0.00001  -0.30155   0.00000  -0.00025  -1.27128
   9        3PZ         0.00000   0.00000   1.28305   0.00000   0.00000
  10        4S          0.00011   1.29500   0.00000  -0.00041  -1.08749
  11        4PX         1.23370  -0.00002   0.00000  -1.20122   0.00024
  12        4PY        -0.00008  -0.94359   0.00000   0.00041   1.69531
  13        4PZ         0.00000   0.00000  -1.20119   0.00000   0.00000
  14 2   H  1S          0.14616  -0.04054   0.00000  -0.13947   0.09188
  15        2S          1.19306  -1.08364   0.00000   0.01547   0.49397
  16 3   H  1S         -0.07308  -0.04053   0.12082   0.06978   0.09184
  17        2S         -0.59662  -1.08362  -0.01330  -0.00750   0.49397
  18 4   H  1S         -0.07308  -0.04053  -0.12082   0.06978   0.09184
  19        2S         -0.59662  -1.08362   0.01330  -0.00750   0.49397
                          16        17        18        19
                           V         V         V         V
     Eigenvalues --     0.46638   0.97402   1.02129   1.02131
   1 1   P  1S         -0.05058  -0.02499   0.00000   0.00000
   2        2S          0.09574   0.07942   0.00000   0.00000
   3        2PX        -0.00002   0.00001   0.00000   0.12706
   4        2PY         0.05821  -0.10869   0.00000   0.00000
   5        2PZ         0.00000   0.00000  -0.12707   0.00000
   6        3S         -2.18728  -0.76566   0.00000   0.00003
   7        3PX         0.00007  -0.00004   0.00000  -0.36984
   8        3PY        -0.09844   0.33333   0.00000   0.00000
   9        3PZ         0.00000   0.00000   0.36986   0.00000
  10        4S          4.30141   2.22045   0.00000  -0.00009
  11        4PX        -0.00002   0.00008   0.00000   0.73362
  12        4PY        -1.37518  -0.99331   0.00000   0.00003
  13        4PZ         0.00000   0.00000  -0.73365   0.00000
  14 2   H  1S         -0.15096   0.74736   0.00000  -1.10049
  15        2S         -1.28785  -1.27785   0.00000   1.38628
  16 3   H  1S         -0.15096   0.74747  -0.95301   0.55017
  17        2S         -1.28789  -1.27802   1.20052  -0.69304
  18 4   H  1S         -0.15096   0.74747   0.95301   0.55017
  19        2S         -1.28789  -1.27802  -1.20052  -0.69304
     Alpha Density Matrix:
                           1         2         3         4         5
   1 1   P  1S          1.06723
   2        2S         -0.27675   1.15763
   3        2PX         0.00000  -0.00001   1.03153
   4        2PY        -0.00554   0.02928   0.00000   0.99858
   5        2PZ         0.00000   0.00000   0.00000   0.00000   1.03153
   6        3S         -0.01378  -0.08576   0.00001  -0.04941   0.00000
   7        3PX         0.00000   0.00001  -0.10975  -0.00001   0.00000
   8        3PY         0.01338  -0.06983  -0.00001  -0.02607   0.00000
   9        3PZ         0.00000   0.00000   0.00000   0.00000  -0.10975
  10        4S          0.07972  -0.32126   0.00002  -0.06580   0.00000
  11        4PX         0.00000   0.00002  -0.24231  -0.00002   0.00000
  12        4PY        -0.00396  -0.00409  -0.00001  -0.09102   0.00000
  13        4PZ         0.00000   0.00000   0.00000   0.00000  -0.24231
  14 2   H  1S          0.00724  -0.03039   0.01673   0.04045   0.00000
  15        2S         -0.01298   0.04559  -0.13991   0.03397   0.00000
  16 3   H  1S          0.00724  -0.03041  -0.00837   0.04046  -0.01450
  17        2S         -0.01298   0.04556   0.06993   0.03399   0.12115
  18 4   H  1S          0.00724  -0.03041  -0.00837   0.04046   0.01450
  19        2S         -0.01298   0.04556   0.06993   0.03399  -0.12115
                           6         7         8         9        10
   6        3S          0.30489
   7        3PX        -0.00003   0.45508
   8        3PY         0.09859   0.00002   0.24741
   9        3PZ         0.00000   0.00000   0.00000   0.45507
  10        4S          0.30975  -0.00004   0.18863   0.00000   0.39397
  11        4PX        -0.00004   0.51554   0.00005   0.00000  -0.00006
  12        4PY         0.04393   0.00003   0.12440   0.00000   0.08470
  13        4PZ         0.00000   0.00000   0.00000   0.51553   0.00000
  14 2   H  1S          0.02862  -0.00972  -0.07698   0.00000   0.00106
  15        2S         -0.03472   0.34083  -0.09248   0.00000  -0.07283
  16 3   H  1S          0.02864   0.00487  -0.07700   0.00843   0.00108
  17        2S         -0.03467  -0.17036  -0.09255  -0.29513  -0.07273
  18 4   H  1S          0.02864   0.00487  -0.07700  -0.00843   0.00108
  19        2S         -0.03467  -0.17036  -0.09255   0.29513  -0.07273
                          11        12        13        14        15
  11        4PX         0.85087
  12        4PY         0.00006   0.06979
  13        4PZ         0.00000   0.00000   0.85087
  14 2   H  1S          0.18308  -0.04434   0.00000   0.19227
  15        2S          0.82500  -0.04791   0.00000   0.35588   1.03221
  16 3   H  1S         -0.09152  -0.04436  -0.15854  -0.03560  -0.13353
  17        2S         -0.41241  -0.04800  -0.71442  -0.13353  -0.46264
  18 4   H  1S         -0.09152  -0.04436   0.15854  -0.03560  -0.13353
  19        2S         -0.41241  -0.04800   0.71442  -0.13353  -0.46264
                          16        17        18        19
  16 3   H  1S          0.19227
  17        2S          0.35584   1.03202
  18 4   H  1S         -0.03561  -0.13356   0.19227
  19        2S         -0.13356  -0.46275   0.35584   1.03202
     Beta Density Matrix:
                           1         2         3         4         5
   1 1   P  1S          1.06609
   2        2S         -0.27066   1.12518
   3        2PX         0.00000   0.00000   0.94649
   4        2PY         0.00652  -0.03661   0.00000   0.95825
   5        2PZ         0.00000   0.00000   0.00000   0.00000   0.94649
   6        3S         -0.02423  -0.02931   0.00000   0.04212   0.00000
   7        3PX         0.00000  -0.00001   0.08574   0.00000   0.00000
   8        3PY        -0.01452   0.08258   0.00000   0.05957   0.00000
   9        3PZ         0.00000   0.00000   0.00000   0.00000   0.08574
  10        4S          0.07196  -0.27954  -0.00001   0.07286   0.00000
  11        4PX         0.00000   0.00000  -0.03001   0.00000   0.00000
  12        4PY        -0.01928   0.08019   0.00000  -0.04995   0.00000
  13        4PZ         0.00000   0.00000   0.00000   0.00000  -0.03001
  14 2   H  1S          0.00854  -0.03863   0.00585   0.01387   0.00000
  15        2S         -0.01070   0.03243  -0.00879  -0.01173   0.00000
  16 3   H  1S          0.00854  -0.03864  -0.00293   0.01388  -0.00507
  17        2S         -0.01070   0.03243   0.00439  -0.01173   0.00761
  18 4   H  1S          0.00854  -0.03864  -0.00293   0.01388   0.00507
  19        2S         -0.01070   0.03243   0.00439  -0.01173  -0.00761
                           6         7         8         9        10
   6        3S          0.21258
   7        3PX         0.00001   0.00777
   8        3PY        -0.10805  -0.00001   0.06635
   9        3PZ         0.00000   0.00000   0.00000   0.00777
  10        4S          0.22872   0.00001  -0.12981   0.00000   0.30280
  11        4PX         0.00000  -0.00272   0.00000   0.00000   0.00000
  12        4PY        -0.07068   0.00000   0.03732   0.00000  -0.09275
  13        4PZ         0.00000   0.00000   0.00000  -0.00272   0.00000
  14 2   H  1S          0.04146   0.00053  -0.02270   0.00000   0.05219
  15        2S         -0.01108  -0.00080   0.00679   0.00000  -0.01911
  16 3   H  1S          0.04147  -0.00026  -0.02271  -0.00046   0.05220
  17        2S         -0.01107   0.00040   0.00678   0.00069  -0.01910
  18 4   H  1S          0.04147  -0.00026  -0.02271   0.00046   0.05220
  19        2S         -0.01107   0.00040   0.00678  -0.00069  -0.01910
                          11        12        13        14        15
  11        4PX         0.00095
  12        4PY         0.00000   0.02925
  13        4PZ         0.00000   0.00000   0.00095
  14 2   H  1S         -0.00019  -0.01608   0.00000   0.00914
  15        2S          0.00028   0.00598   0.00000  -0.00319   0.00161
  16 3   H  1S          0.00009  -0.01608   0.00016   0.00909  -0.00311
  17        2S         -0.00014   0.00598  -0.00024  -0.00311   0.00149
  18 4   H  1S          0.00009  -0.01608  -0.00016   0.00909  -0.00311
  19        2S         -0.00014   0.00598   0.00024  -0.00311   0.00149
                          16        17        18        19
  16 3   H  1S          0.00914
  17        2S         -0.00319   0.00161
  18 4   H  1S          0.00909  -0.00311   0.00914
  19        2S         -0.00311   0.00149  -0.00319   0.00161
    Full Mulliken population analysis:
                           1         2         3         4         5
   1 1   P  1S          2.13332
   2        2S         -0.13751   2.28280
   3        2PX         0.00000   0.00000   1.97802
   4        2PY         0.00000   0.00000   0.00000   1.95682
   5        2PZ         0.00000   0.00000   0.00000   0.00000   1.97802
   6        3S         -0.00129  -0.04067   0.00000   0.00000   0.00000
   7        3PX         0.00000   0.00000  -0.00726   0.00000   0.00000
   8        3PY         0.00000   0.00000   0.00000   0.01013   0.00000
   9        3PZ         0.00000   0.00000   0.00000   0.00000  -0.00726
  10        4S          0.00499  -0.15321   0.00000   0.00000   0.00000
  11        4PX         0.00000   0.00000  -0.02014   0.00000   0.00000
  12        4PY         0.00000   0.00000   0.00000  -0.01043   0.00000
  13        4PZ         0.00000   0.00000   0.00000   0.00000  -0.02014
  14 2   H  1S          0.00001  -0.00049  -0.00019  -0.00029   0.00000
  15        2S         -0.00028   0.00754   0.00480  -0.00046   0.00000
  16 3   H  1S          0.00001  -0.00049  -0.00005  -0.00029  -0.00014
  17        2S         -0.00028   0.00754   0.00120  -0.00046   0.00360
  18 4   H  1S          0.00001  -0.00049  -0.00005  -0.00029  -0.00014
  19        2S         -0.00028   0.00754   0.00120  -0.00046   0.00360
                           6         7         8         9        10
   6        3S          0.51747
   7        3PX         0.00000   0.46284
   8        3PY         0.00000   0.00000   0.31376
   9        3PZ         0.00000   0.00000   0.00000   0.46284
  10        4S          0.44908   0.00000   0.00000   0.00000   0.69676
  11        4PX         0.00000   0.33160   0.00000   0.00000   0.00000
  12        4PY         0.00000   0.00000   0.10457   0.00000   0.00000
  13        4PZ         0.00000   0.00000   0.00000   0.33159   0.00000
  14 2   H  1S          0.01031   0.00209   0.01470   0.00000   0.01283
  15        2S         -0.01819  -0.10737   0.01750   0.00000  -0.05252
  16 3   H  1S          0.01031   0.00053   0.01470   0.00157   0.01284
  17        2S         -0.01816  -0.02684   0.01752  -0.08052  -0.05246
  18 4   H  1S          0.01031   0.00053   0.01470   0.00157   0.01284
  19        2S         -0.01816  -0.02684   0.01752  -0.08052  -0.05246
                          11        12        13        14        15
  11        4PX         0.85182
  12        4PY         0.00000   0.09904
  13        4PZ         0.00000   0.00000   0.85182
  14 2   H  1S         -0.06094   0.01302   0.00000   0.20141
  15        2S         -0.44603   0.01466   0.00000   0.22780   1.03382
  16 3   H  1S         -0.01523   0.01302  -0.04570  -0.00004  -0.00882
  17        2S         -0.11148   0.01469  -0.33449  -0.00881  -0.11405
  18 4   H  1S         -0.01523   0.01302  -0.04570  -0.00004  -0.00882
  19        2S         -0.11148   0.01469  -0.33449  -0.00881  -0.11405
                          16        17        18        19
  16 3   H  1S          0.20141
  17        2S          0.22777   1.03363
  18 4   H  1S         -0.00004  -0.00882   0.20141
  19        2S         -0.00882  -0.11409   0.22777   1.03363
     Gross orbital populations:
                         Total     Alpha     Beta      Spin
   1 1   P  1S          1.99868   0.99941   0.99927   0.00014
   2        2S          1.97256   0.98844   0.98412   0.00432
   3        2PX         1.95753   0.98698   0.97056   0.01642
   4        2PY         1.95426   0.98118   0.97308   0.00810
   5        2PZ         1.95753   0.98698   0.97056   0.01642
   6        3S          0.90100   0.50375   0.39725   0.10650
   7        3PX         0.62928   0.59714   0.03214   0.56500
   8        3PY         0.52509   0.41072   0.11438   0.29634
   9        3PZ         0.62928   0.59714   0.03214   0.56500
  10        4S          0.87867   0.44906   0.42961   0.01945
  11        4PX         0.40288   0.40604  -0.00316   0.40919
  12        4PY         0.27628   0.22247   0.05381   0.16867
  13        4PZ         0.40288   0.40604  -0.00316   0.40920
  14 2   H  1S          0.40255   0.37081   0.03173   0.33908
  15        2S          0.43552   0.45079  -0.01527   0.46607
  16 3   H  1S          0.40255   0.37080   0.03175   0.33905
  17        2S          0.43546   0.45073  -0.01527   0.46599
  18 4   H  1S          0.40255   0.37080   0.03175   0.33905
  19        2S          0.43546   0.45073  -0.01527   0.46599
          Condensed to atoms (all electrons):
              1          2          3          4
     1  P   16.253423  -0.589321  -0.589089  -0.589089
     2  H   -0.589321   1.690835  -0.131725  -0.131725
     3  H   -0.589089  -0.131725   1.690588  -0.131767
     4  H   -0.589089  -0.131725  -0.131767   1.690588
 Mulliken atomic charges:
              1
     1  P    0.514077
     2  H    0.161936
     3  H    0.161994
     4  H    0.161994
 Sum of Mulliken atomic charges =   1.00000
 Mulliken charges with hydrogens summed into heavy atoms:
              1
     1  P    1.000000
 Sum of Mulliken charges with hydrogens summed into heavy atoms =   1.00000
          Atomic-Atomic Spin Densities.
              1          2          3          4
     1  P    4.411532  -0.609058  -0.608858  -0.608858
     2  H   -0.609058   1.677576  -0.131686  -0.131686
     3  H   -0.608858  -0.131686   1.677320  -0.131729
     4  H   -0.608858  -0.131686  -0.131729   1.677320
 Mulliken atomic spin densities:
              1
     1  P    2.584758
     2  H    0.805146
     3  H    0.805048
     4  H    0.805048
 Sum of Mulliken atomic spin densities =   5.00000
 Electronic spatial extent (au):  <R**2>=             50.5196
 Charge=              1.0000 electrons
 Dipole moment (field-independent basis, Debye):
    X=              0.0002    Y=             -1.1149    Z=              0.0000  Tot=              1.1149
 Quadrupole moment (field-independent basis, Debye-Ang):
   XX=            -13.2338   YY=            -13.8181   ZZ=            -13.2332
   XY=             -0.0004   XZ=              0.0000   YZ=              0.0000
 Traceless Quadrupole moment (field-independent basis, Debye-Ang):
   XX=              0.1946   YY=             -0.3897   ZZ=              0.1951
   XY=             -0.0004   XZ=              0.0000   YZ=              0.0000
 Octapole moment (field-independent basis, Debye-Ang**2):
  XXX=             -0.7120  YYY=              0.5358  ZZZ=              0.0000  XYY=              0.0002
  XXY=             -0.2684  XXZ=              0.0000  XZZ=              0.7129  YZZ=             -0.2690
  YYZ=              0.0000  XYZ=              0.0000
 Hexadecapole moment (field-independent basis, Debye-Ang**3):
 XXXX=            -30.9999 YYYY=            -27.0900 ZZZZ=            -30.9963 XXXY=             -1.1417
 XXXZ=              0.0000 YYYX=             -0.0007 YYYZ=              0.0000 ZZZX=              0.0000
 ZZZY=              0.0000 XXYY=            -11.0222 XXZZ=            -10.3326 YYZZ=            -11.0214
 XXYZ=              0.0000 YYXZ=              0.0000 ZZXY=              1.1403
 N-N= 1.752628064564D+01 E-N=-1.236926274735D+03  KE= 5.079522100539D+02
 Symmetry A'   KE= 4.617125910260D+02
 Symmetry A"   KE= 4.623961902784D+01
 Orbital energies and kinetic energies (alpha):
                                 1                 2
   1         O               -79.812200        105.405195
   2         O                -7.890566         16.227353
   3         O                -5.783958         14.579389
   4         O                -5.783958         14.579388
   5         O                -5.774406         14.566860
   6         O                -1.360872          1.663503
   7         O                -1.019590          1.215165
   8         O                -1.019587          1.215192
   9         O                -0.883756          1.604020
  10         O                -0.502556          1.315534
  11         O                -0.502554          1.315510
  12         V                -0.114354          1.687338
  13         V                 0.238121          2.040664
  14         V                 0.238121          2.040671
  15         V                 0.264766          2.207962
  16         V                 0.376046          1.486805
  17         V                 0.802164          2.416245
  18         V                 0.846260          2.203128
  19         V                 0.846269          2.203119
 Orbital energies and kinetic energies (beta):
                                 1                 2
   1         O               -79.788689        105.417806
   2         O                -7.861554         16.244604
   3         O                -5.742773         14.569933
   4         O                -5.733692         14.564764
   5         O                -5.733691         14.564764
   6         O                -1.059105          1.770678
   7         V                -0.397934          1.050002
   8         V                -0.397924          1.050003
   9         V                -0.280337          1.223627
  10         V                 0.001309          0.744339
  11         V                 0.001316          0.744330
  12         V                 0.043448          1.366862
  13         V                 0.344828          2.542132
  14         V                 0.344831          2.542145
  15         V                 0.365416          2.493600
  16         V                 0.466380          1.620242
  17         V                 0.974022          2.557929
  18         V                 1.021293          2.452644
  19         V                 1.021310          2.452635
 Total kinetic energy from orbitals= 3.408196600186D+02
                          Isotropic Fermi Contact Couplings
        Atom                 a.u.       MegaHertz       Gauss      10(-4) cm-1
     1  P(31)              0.81928     296.75916     105.89104      98.98820
     2  H(1)               0.27947     249.84299      89.15019      83.33865
     3  H(1)               0.27945     249.82521      89.14384      83.33272
     4  H(1)               0.27945     249.82521      89.14384      83.33272
 --------------------------------------------------------
       Center         ----  Spin Dipole Couplings  ----
                      3XX-RR        3YY-RR        3ZZ-RR
 --------------------------------------------------------
     1   Atom        0.857216     -1.714395      0.857179
     2   Atom        0.036324      0.019209     -0.055533
     3   Atom       -0.032562      0.019212      0.013350
     4   Atom       -0.032562      0.019212      0.013350
 --------------------------------------------------------
                        XY            XZ            YZ
 --------------------------------------------------------
     1   Atom        0.000266      0.000000      0.000000
     2   Atom        0.103088      0.000000      0.000000
     3   Atom       -0.051543      0.039775     -0.089270
     4   Atom       -0.051543     -0.039775      0.089270
 --------------------------------------------------------


 ---------------------------------------------------------------------------------
              Anisotropic Spin Dipole Couplings in Principal Axis System
 ---------------------------------------------------------------------------------

       Atom             a.u.   MegaHertz   Gauss  10(-4) cm-1        Axes

              Baa    -1.7144  -370.624  -132.248  -123.627 -0.0001  1.0000  0.0000
     1 P(31)  Bbb     0.8572   185.308    66.123    61.812  0.0000  0.0000  1.0000
              Bcc     0.8572   185.316    66.125    61.815  1.0000  0.0001  0.0000
 
              Baa    -0.0757   -40.377   -14.408   -13.468 -0.6772  0.7358  0.0000
     2 H(1)   Bbb    -0.0555   -29.630   -10.573    -9.883  0.0000  0.0000  1.0000
              Bcc     0.1312    70.007    24.980    23.352  0.7358  0.6772  0.0000
 
              Baa    -0.0757   -40.375   -14.407   -13.468  0.3385  0.7358  0.5866
     3 H(1)   Bbb    -0.0555   -29.628   -10.572    -9.883  0.8661  0.0001 -0.4999
              Bcc     0.1312    70.003    24.979    23.350 -0.3679  0.6772 -0.6372
 
              Baa    -0.0757   -40.375   -14.407   -13.468  0.3385  0.7358 -0.5866
     4 H(1)   Bbb    -0.0555   -29.628   -10.572    -9.883  0.8661  0.0001  0.4999
              Bcc     0.1312    70.003    24.979    23.350 -0.3679  0.6772  0.6372
 

 ---------------------------------------------------------------------------------

 1|1|UNPC-DESKTOP-RA5CP68|SP|UHF|3-21G|H3P1(1+,6)|FELIPE|07-Nov-2023|0|
 |# hf/3-21g pop=full||PH3-CHARGE1-HF-MULT6||1,6|P,0,0.,0.,0.|H,0,0.,-1
 .1932,-0.7717|H,0,1.0333,0.5966,-0.7717|H,0,-1.0333,0.5966,-0.7717||Ve
 rsion=IA32W-G09RevB.01|State=6-A'|HF=-339.7533916|S2=8.77439|S2-1=0.|S
 2A=8.75|RMSD=9.293e-009|Dipole=0.,0.0000656,-0.4386194|Quadrupole=0.14
 50817,0.1446677,-0.2897494,0.,0.,-0.0003148|PG=CS [SG(H1P1),X(H2)]||@


 I CLAIM NOT TO HAVE CONTROLLED EVENTS,
 BUT CONFESS PLAINLY THAT EVENTS HAVE CONTROLLED ME.

                                         A. LINCOLN
 Job cpu time:  0 days  0 hours  0 minutes  0.0 seconds.
 File lengths (MBytes):  RWF=      5 Int=      0 D2E=      0 Chk=      1 Scr=      1
 Normal termination of Gaussian 09 at Tue Nov 07 19:07:31 2023.
