 Entering Link 1 = C:\G09W\l1.exe PID=     25000.
  
 Copyright (c) 1988,1990,1992,1993,1995,1998,2003,2009,2010,
            Gaussian, Inc.  All Rights Reserved.
  
 This is part of the Gaussian(R) 09 program.  It is based on
 the Gaussian(R) 03 system (copyright 2003, Gaussian, Inc.),
 the Gaussian(R) 98 system (copyright 1998, Gaussian, Inc.),
 the Gaussian(R) 94 system (copyright 1995, Gaussian, Inc.),
 the Gaussian 92(TM) system (copyright 1992, Gaussian, Inc.),
 the Gaussian 90(TM) system (copyright 1990, Gaussian, Inc.),
 the Gaussian 88(TM) system (copyright 1988, Gaussian, Inc.),
 the Gaussian 86(TM) system (copyright 1986, Carnegie Mellon
 University), and the Gaussian 82(TM) system (copyright 1983,
 Carnegie Mellon University). Gaussian is a federally registered
 trademark of Gaussian, Inc.
  
 This software contains proprietary and confidential information,
 including trade secrets, belonging to Gaussian, Inc.
  
 This software is provided under written license and may be
 used, copied, transmitted, or stored only in accord with that
 written license.
  
 The following legend is applicable only to US Government
 contracts under FAR:
  
                    RESTRICTED RIGHTS LEGEND
  
 Use, reproduction and disclosure by the US Government is
 subject to restrictions as set forth in subparagraphs (a)
 and (c) of the Commercial Computer Software - Restricted
 Rights clause in FAR 52.227-19.
  
 Gaussian, Inc.
 340 Quinnipiac St., Bldg. 40, Wallingford CT 06492
  
  
 ---------------------------------------------------------------
 Warning -- This program may not be used in any manner that
 competes with the business of Gaussian, Inc. or will provide
 assistance to any competitor of Gaussian, Inc.  The licensee
 of this program is prohibited from giving any competitor of
 Gaussian, Inc. access to this program.  By using this program,
 the user acknowledges that Gaussian, Inc. is engaged in the
 business of creating and licensing software in the field of
 computational chemistry and represents and warrants to the
 licensee that it is not a competitor of Gaussian, Inc. and that
 it will not use this program in any manner prohibited above.
 ---------------------------------------------------------------
  

 Cite this work as:
 Gaussian 09, Revision B.01,
 M. J. Frisch, G. W. Trucks, H. B. Schlegel, G. E. Scuseria, 
 M. A. Robb, J. R. Cheeseman, G. Scalmani, V. Barone, B. Mennucci, 
 G. A. Petersson, H. Nakatsuji, M. Caricato, X. Li, H. P. Hratchian, 
 A. F. Izmaylov, J. Bloino, G. Zheng, J. L. Sonnenberg, M. Hada, 
 M. Ehara, K. Toyota, R. Fukuda, J. Hasegawa, M. Ishida, T. Nakajima, 
 Y. Honda, O. Kitao, H. Nakai, T. Vreven, J. A. Montgomery, Jr., 
 J. E. Peralta, F. Ogliaro, M. Bearpark, J. J. Heyd, E. Brothers, 
 K. N. Kudin, V. N. Staroverov, T. Keith, R. Kobayashi, J. Normand, 
 K. Raghavachari, A. Rendell, J. C. Burant, S. S. Iyengar, J. Tomasi, 
 M. Cossi, N. Rega, J. M. Millam, M. Klene, J. E. Knox, J. B. Cross, 
 V. Bakken, C. Adamo, J. Jaramillo, R. Gomperts, R. E. Stratmann, 
 O. Yazyev, A. J. Austin, R. Cammi, C. Pomelli, J. W. Ochterski, 
 R. L. Martin, K. Morokuma, V. G. Zakrzewski, G. A. Voth, 
 P. Salvador, J. J. Dannenberg, S. Dapprich, A. D. Daniels, 
 O. Farkas, J. B. Foresman, J. V. Ortiz, J. Cioslowski, 
 and D. J. Fox, Gaussian, Inc., Wallingford CT, 2010.
 
 ******************************************
 Gaussian 09:  IA32W-G09RevB.01 12-Aug-2010
                07-Nov-2023 
 ******************************************
 %chk=PH3-CHARGE1-HF-MULT2.chk
 %mem=6MW
 %nproc=1
 Will use up to    1 processors via shared memory.
 -------------------
 # hf/3-21g pop=full
 -------------------
 1/38=1/1;
 2/12=2,17=6,18=5,40=1/2;
 3/5=5,11=9,16=1,25=1,30=1/1,2,3;
 4//1;
 5/5=2,38=5/2;
 6/7=3,28=1/1;
 99/5=1,9=1/99;
 --------------------
 PH3-CHARGE1-HF-MULT2
 --------------------
 Symbolic Z-matrix:
 Charge =  1 Multiplicity = 2
 P1                    0.        0.        0. 
 H2                    0.       -1.1932   -0.7717 
 H3                    1.0333    0.5966   -0.7717 
 H4                   -1.0333    0.5966   -0.7717 
 
                          Input orientation:                          
 ---------------------------------------------------------------------
 Center     Atomic      Atomic             Coordinates (Angstroms)
 Number     Number       Type             X           Y           Z
 ---------------------------------------------------------------------
      1         15           0        0.000000    0.000000    0.000000
      2          1           0        0.000000   -1.193200   -0.771700
      3          1           0        1.033300    0.596600   -0.771700
      4          1           0       -1.033300    0.596600   -0.771700
 ---------------------------------------------------------------------
                    Distance matrix (angstroms):
                    1          2          3          4
     1  P    0.000000
     2  H    1.421002   0.000000
     3  H    1.420972   2.066662   0.000000
     4  H    1.420972   2.066662   2.066600   0.000000
 Stoichiometry    H3P(1+,2)
 Framework group  CS[SG(HP),X(H2)]
 Deg. of freedom     4
 Full point group                 CS      NOp   2
 Largest Abelian subgroup         CS      NOp   2
 Largest concise Abelian subgroup CS      NOp   2
                         Standard orientation:                         
 ---------------------------------------------------------------------
 Center     Atomic      Atomic             Coordinates (Angstroms)
 Number     Number       Type             X           Y           Z
 ---------------------------------------------------------------------
      1         15           0        0.000000    0.128617    0.000000
      2          1           0       -1.193200   -0.643083    0.000000
      3          1           0        0.596600   -0.643083    1.033300
      4          1           0        0.596600   -0.643083   -1.033300
 ---------------------------------------------------------------------
 Rotational constants (GHZ):    133.2559896    133.2499140    117.4090990
 Standard basis: 3-21G (6D, 7F)
 There are    14 symmetry adapted basis functions of A'  symmetry.
 There are     5 symmetry adapted basis functions of A"  symmetry.
 Integral buffers will be    262144 words long.
 Raffenetti 2 integral format.
 Two-electron integral symmetry is turned on.
    19 basis functions,    36 primitive gaussians,    19 cartesian basis functions
     9 alpha electrons        8 beta electrons
       nuclear repulsion energy        17.5262806456 Hartrees.
 NAtoms=    4 NActive=    4 NUniq=    3 SFac= 1.78D+00 NAtFMM=   50 NAOKFM=F Big=F
 One-electron integrals computed using PRISM.
 NBasis=    19 RedAO= T  NBF=    14     5
 NBsUse=    19 1.00D-06 NBFU=    14     5
 Harris functional with IExCor=  205 diagonalized for initial guess.
 ExpMin= 1.23D-01 ExpMax= 1.05D+03 ExpMxC= 1.05D+03 IAcc=1 IRadAn=         1 AccDes= 0.00D+00
 HarFok:  IExCor=  205 AccDes= 0.00D+00 IRadAn=         1 IDoV= 1
 ScaDFX=  1.000000  1.000000  1.000000  1.000000
 FoFCou: FMM=F IPFlag=           0 FMFlag=      100000 FMFlg1=           0
         NFxFlg=           0 DoJE=T BraDBF=F KetDBF=T FulRan=T
         Omega=  0.000000  0.000000  1.000000  0.000000  0.000000 ICntrl=     500 IOpCl=  0
         NMat0=    1 NMatS0=    1 NMatT0=    0 NMatD0=    1 NMtDS0=    0 NMtDT0=    0
         I1Cent=           4 NGrid=           0.
 Petite list used in FoFCou.
 Initial guess orbital symmetries:
 Alpha Orbitals:
       Occupied  (A') (A') (A") (A') (A') (A') (A') (A") (A')
       Virtual   (A") (A') (A') (A") (A') (A') (A') (A') (A") (A')
 Beta  Orbitals:
       Occupied  (A') (A') (A") (A') (A') (A') (A') (A")
       Virtual   (A') (A") (A') (A') (A") (A') (A') (A') (A') (A")
                 (A')
 The electronic state of the initial guess is 2-A'.
 Initial guess <Sx>= 0.0000 <Sy>= 0.0000 <Sz>= 0.5000 <S**2>= 0.7500 S= 0.5000
 Requested convergence on RMS density matrix=1.00D-08 within 128 cycles.
 Requested convergence on MAX density matrix=1.00D-06.
 Requested convergence on             energy=1.00D-06.
 No special actions if energy rises.
 Keep R1 and R2 ints in memory in canonical form, NReq=856044.
 SCF Done:  E(UHF) =  -340.350760433     A.U. after   11 cycles
             Convg  =    0.6465D-08             -V/T =  2.0005
 <Sx>= 0.0000 <Sy>= 0.0000 <Sz>= 0.5000 <S**2>= 0.7553 S= 0.5027
 <L.S>= 0.000000000000E+00
 Annihilation of the first spin contaminant:
 S**2 before annihilation     0.7553,   after     0.7500

 **********************************************************************

            Population analysis using the SCF density.

 **********************************************************************

 Orbital symmetries:
 Alpha Orbitals:
       Occupied  (A') (A') (A') (A") (A') (A') (A') (A") (A')
       Virtual   (A') (A") (A') (A') (A") (A') (A') (A') (A") (A')
 Beta  Orbitals:
       Occupied  (A') (A') (A') (A") (A') (A') (A') (A")
       Virtual   (A') (A") (A') (A') (A") (A') (A') (A') (A') (A")
                 (A')
 The electronic state is 2-A'.
 Alpha  occ. eigenvalues --  -79.74312  -7.81969  -5.71308  -5.70121  -5.70121
 Alpha  occ. eigenvalues --   -1.21304  -0.82342  -0.82342  -0.77808
 Alpha virt. eigenvalues --   -0.10770  -0.10770   0.01149   0.29321   0.31090
 Alpha virt. eigenvalues --    0.31090   0.45619   0.94168   0.98320   0.98321
  Beta  occ. eigenvalues --  -79.73317  -7.80510  -5.69300  -5.69300  -5.68125
  Beta  occ. eigenvalues --   -1.14310  -0.80124  -0.80124
  Beta virt. eigenvalues --   -0.32037  -0.07084  -0.07084   0.01990   0.32755
  Beta virt. eigenvalues --    0.32755   0.37566   0.47072   0.94592   0.98866
  Beta virt. eigenvalues --    0.98867
     Alpha Molecular Orbital Coefficients:
                           1         2         3         4         5
                           O         O         O         O         O
     Eigenvalues --   -79.74312  -7.81969  -5.71308  -5.70121  -5.70121
   1 1   P  1S          0.98703  -0.29571   0.00109   0.00000   0.00000
   2        2S          0.04871   0.99744  -0.00377   0.00000   0.00000
   3        2PX         0.00000   0.00000   0.00000   0.00000   0.97315
   4        2PY        -0.00007   0.00495   0.97330   0.00000   0.00000
   5        2PZ         0.00000   0.00000   0.00000   0.97315   0.00000
   6        3S         -0.01548   0.12986  -0.00631   0.00000   0.00000
   7        3PX         0.00000   0.00000   0.00000   0.00000   0.08704
   8        3PY         0.00033  -0.00307   0.08680   0.00000   0.00000
   9        3PZ         0.00000   0.00000   0.00000   0.08704   0.00000
  10        4S          0.01065  -0.08595   0.01644   0.00000   0.00000
  11        4PX         0.00000   0.00000   0.00000   0.00000  -0.02912
  12        4PY        -0.00210   0.02111  -0.03216   0.00000   0.00000
  13        4PZ         0.00000   0.00000   0.00000  -0.02912   0.00000
  14 2   H  1S          0.00086  -0.00446   0.00356   0.00000   0.00574
  15        2S         -0.00234   0.02129  -0.00871   0.00000  -0.00816
  16 3   H  1S          0.00086  -0.00446   0.00356  -0.00498  -0.00287
  17        2S         -0.00234   0.02129  -0.00871   0.00706   0.00408
  18 4   H  1S          0.00086  -0.00446   0.00356   0.00498  -0.00287
  19        2S         -0.00234   0.02129  -0.00871  -0.00706   0.00408
                           6         7         8         9        10
                           O         O         O         O         V
     Eigenvalues --    -1.21304  -0.82342  -0.82342  -0.77808  -0.10770
   1 1   P  1S          0.06817   0.00000   0.00000   0.02436   0.00000
   2        2S         -0.36609   0.00001   0.00000  -0.13165   0.00001
   3        2PX         0.00000  -0.21314   0.00000  -0.00001  -0.14144
   4        2PY         0.03039   0.00001   0.00000  -0.24639  -0.00001
   5        2PZ         0.00000   0.00000  -0.21315   0.00000   0.00000
   6        3S          0.45093  -0.00001   0.00000   0.21384  -0.00003
   7        3PX         0.00001   0.45177   0.00000   0.00003   0.29144
   8        3PY        -0.04805  -0.00003   0.00000   0.53575   0.00001
   9        3PZ         0.00000   0.00000   0.45177   0.00000   0.00000
  10        4S          0.50311  -0.00004   0.00000   0.22410  -0.00002
  11        4PX         0.00000   0.21405   0.00000   0.00002   1.13832
  12        4PY        -0.06586  -0.00001   0.00000   0.39821   0.00002
  13        4PZ         0.00000   0.00000   0.21405   0.00000   0.00000
  14 2   H  1S          0.11824  -0.24450   0.00000  -0.09581   0.18000
  15        2S          0.01370  -0.28512   0.00000  -0.07734   1.12500
  16 3   H  1S          0.11824   0.12226   0.21175  -0.09579  -0.08999
  17        2S          0.01371   0.14257   0.24693  -0.07732  -0.56245
  18 4   H  1S          0.11824   0.12226  -0.21175  -0.09579  -0.08999
  19        2S          0.01371   0.14257  -0.24693  -0.07732  -0.56245
                          11        12        13        14        15
                           V         V         V         V         V
     Eigenvalues --    -0.10770   0.01149   0.29321   0.31090   0.31090
   1 1   P  1S          0.00000   0.04906   0.01742   0.00000   0.00000
   2        2S          0.00000  -0.27352  -0.06075   0.00000   0.00000
   3        2PX         0.00000   0.00000   0.00001   0.00000   0.32836
   4        2PY         0.00000   0.09944  -0.31629   0.00000   0.00001
   5        2PZ        -0.14144   0.00000   0.00000   0.32836   0.00000
   6        3S          0.00000   0.50166   0.52028   0.00000  -0.00010
   7        3PX         0.00000   0.00001  -0.00005   0.00000  -1.24651
   8        3PY         0.00000  -0.22510   1.19445   0.00000  -0.00004
   9        3PZ         0.29143   0.00000   0.00000  -1.24651   0.00000
  10        4S          0.00000   1.49236  -0.62508   0.00000   0.00017
  11        4PX         0.00000   0.00010   0.00004   0.00000   1.29349
  12        4PY         0.00000  -1.15963  -1.10418   0.00000  -0.00002
  13        4PZ         1.13831   0.00000   0.00000   1.29346   0.00000
  14 2   H  1S          0.00000  -0.05750  -0.03140   0.00000   0.12103
  15        2S          0.00000  -1.12882   0.07748   0.00000   0.04749
  16 3   H  1S         -0.15588  -0.05751  -0.03141  -0.10482  -0.06053
  17        2S         -0.97426  -1.12896   0.07750  -0.04113  -0.02381
  18 4   H  1S          0.15588  -0.05751  -0.03141   0.10482  -0.06053
  19        2S          0.97426  -1.12896   0.07750   0.04113  -0.02381
                          16        17        18        19
                           V         V         V         V
     Eigenvalues --     0.45619   0.94168   0.98320   0.98321
   1 1   P  1S         -0.04475  -0.02823   0.00000  -0.00001
   2        2S          0.06744   0.08943   0.00000   0.00002
   3        2PX        -0.00002  -0.00002   0.00000   0.12437
   4        2PY        -0.05720  -0.11698   0.00000  -0.00003
   5        2PZ         0.00000   0.00000  -0.12437   0.00000
   6        3S         -2.09762  -0.85787   0.00000  -0.00019
   7        3PX         0.00006   0.00006   0.00000  -0.35879
   8        3PY         0.33012   0.36255   0.00000   0.00009
   9        3PZ         0.00000   0.00000   0.35881   0.00000
  10        4S          4.23457   2.41545   0.00000   0.00052
  11        4PX        -0.00001  -0.00012   0.00000   0.75994
  12        4PY        -1.76460  -1.08930   0.00000  -0.00024
  13        4PZ         0.00000   0.00000  -0.75996   0.00000
  14 2   H  1S         -0.20015   0.73232   0.00000  -1.08733
  15        2S         -1.25522  -1.36028   0.00000   1.44521
  16 3   H  1S         -0.20015   0.73200  -0.94178   0.54388
  17        2S         -1.25526  -1.35989   1.25185  -0.72303
  18 4   H  1S         -0.20015   0.73200   0.94178   0.54388
  19        2S         -1.25526  -1.35989  -1.25185  -0.72303
     Beta Molecular Orbital Coefficients:
                           1         2         3         4         5
                           O         O         O         O         O
     Eigenvalues --   -79.73317  -7.80510  -5.69300  -5.69300  -5.68125
   1 1   P  1S          0.98704  -0.29571   0.00000   0.00000  -0.00131
   2        2S          0.04866   0.99762   0.00000   0.00000   0.00424
   3        2PX         0.00000   0.00000   0.97341   0.00000   0.00002
   4        2PY        -0.00008  -0.00337  -0.00002   0.00000   0.97271
   5        2PZ         0.00000   0.00000   0.00000   0.97341   0.00000
   6        3S         -0.01544   0.13007   0.00000   0.00000  -0.00381
   7        3PX         0.00000   0.00000   0.08640   0.00000   0.00000
   8        3PY         0.00034  -0.00316   0.00000   0.00000   0.08875
   9        3PZ         0.00000   0.00000   0.00000   0.08640   0.00000
  10        4S          0.01064  -0.08701   0.00000   0.00000   0.01487
  11        4PX         0.00000   0.00000  -0.02959   0.00000   0.00000
  12        4PY        -0.00211   0.02106   0.00000   0.00000  -0.03327
  13        4PZ         0.00000   0.00000   0.00000  -0.02959   0.00000
  14 2   H  1S          0.00086  -0.00452   0.00564   0.00000   0.00348
  15        2S         -0.00234   0.02147  -0.00854   0.00000  -0.00863
  16 3   H  1S          0.00086  -0.00453  -0.00282  -0.00488   0.00348
  17        2S         -0.00234   0.02147   0.00427   0.00740  -0.00863
  18 4   H  1S          0.00086  -0.00453  -0.00282   0.00488   0.00348
  19        2S         -0.00234   0.02147   0.00427  -0.00740  -0.00863
                           6         7         8         9        10
                           O         O         O         V         V
     Eigenvalues --    -1.14310  -0.80124  -0.80124  -0.32037  -0.07084
   1 1   P  1S          0.06263   0.00000   0.00000   0.03296   0.00000
   2        2S         -0.33644   0.00001   0.00000  -0.18516   0.00000
   3        2PX         0.00000  -0.20034   0.00000   0.00000   0.00000
   4        2PY         0.07522   0.00000   0.00000  -0.18488   0.00000
   5        2PZ         0.00000   0.00000  -0.20034   0.00000  -0.13997
   6        3S          0.40664   0.00000   0.00000   0.19504   0.00000
   7        3PX         0.00001   0.41704   0.00000   0.00000   0.00000
   8        3PY        -0.15669   0.00000   0.00000   0.32863   0.00000
   9        3PZ         0.00000   0.00000   0.41705   0.00000   0.27298
  10        4S          0.43865  -0.00003   0.00000   0.48040   0.00000
  11        4PX         0.00000   0.18390   0.00000   0.00000   0.00000
  12        4PY        -0.08792   0.00001   0.00000   0.49038   0.00000
  13        4PZ         0.00000   0.00000   0.18390   0.00000   1.18964
  14 2   H  1S          0.13347  -0.25536   0.00000  -0.08134   0.00000
  15        2S          0.04094  -0.33024   0.00000  -0.12910   0.00000
  16 3   H  1S          0.13348   0.12768   0.22115  -0.08134  -0.14196
  17        2S          0.04094   0.16512   0.28600  -0.12909  -0.97189
  18 4   H  1S          0.13348   0.12768  -0.22115  -0.08134   0.14196
  19        2S          0.04094   0.16512  -0.28600  -0.12909   0.97189
                          11        12        13        14        15
                           V         V         V         V         V
     Eigenvalues --    -0.07084   0.01990   0.32755   0.32755   0.37566
   1 1   P  1S          0.00000   0.04747   0.00000   0.00000   0.01857
   2        2S          0.00002  -0.26763   0.00000   0.00000  -0.09013
   3        2PX        -0.13997  -0.00001   0.00000  -0.33426  -0.00002
   4        2PY        -0.00001   0.11014   0.00000   0.00002  -0.35003
   5        2PZ         0.00000   0.00000  -0.33426   0.00000   0.00000
   6        3S         -0.00003   0.46086   0.00000   0.00006   0.29463
   7        3PX         0.27298   0.00001   0.00000   1.25793   0.00006
   8        3PY         0.00002  -0.25079   0.00000  -0.00006   1.28128
   9        3PZ         0.00000   0.00000   1.25792   0.00000   0.00000
  10        4S         -0.00005   1.55114   0.00000  -0.00014   0.00130
  11        4PX         1.18964   0.00012   0.00000  -1.24940  -0.00006
  12        4PY         0.00005  -1.18846   0.00000   0.00011  -1.26721
  13        4PZ         0.00000   0.00000  -1.24937   0.00000   0.00000
  14 2   H  1S          0.16393  -0.05260   0.00000  -0.13087  -0.07517
  15        2S          1.12229  -1.14655   0.00000  -0.00591  -0.10211
  16 3   H  1S         -0.08195  -0.05262   0.11335   0.06546  -0.07517
  17        2S         -0.56107  -1.14671   0.00512   0.00302  -0.10209
  18 4   H  1S         -0.08195  -0.05262  -0.11335   0.06546  -0.07517
  19        2S         -0.56107  -1.14671  -0.00512   0.00302  -0.10209
                          16        17        18        19
                           V         V         V         V
     Eigenvalues --     0.47072   0.94592   0.98866   0.98867
   1 1   P  1S         -0.04841  -0.02785   0.00000  -0.00001
   2        2S          0.08454   0.08762   0.00000   0.00002
   3        2PX        -0.00002  -0.00002   0.00000   0.12952
   4        2PY        -0.00838  -0.12301   0.00000  -0.00003
   5        2PZ         0.00000   0.00000  -0.12952   0.00000
   6        3S         -2.16235  -0.85382   0.00000  -0.00017
   7        3PX         0.00006   0.00005   0.00000  -0.37529
   8        3PY         0.15695   0.38084   0.00000   0.00009
   9        3PZ         0.00000   0.00000   0.37531   0.00000
  10        4S          4.24731   2.41209   0.00000   0.00048
  11        4PX        -0.00001  -0.00010   0.00000   0.76297
  12        4PY        -1.60118  -1.09406   0.00000  -0.00022
  13        4PZ         0.00000   0.00000  -0.76299   0.00000
  14 2   H  1S         -0.19034   0.73122   0.00000  -1.08625
  15        2S         -1.23554  -1.35732   0.00000   1.43850
  16 3   H  1S         -0.19034   0.73094  -0.94083   0.54332
  17        2S         -1.23558  -1.35697   1.24603  -0.71964
  18 4   H  1S         -0.19034   0.73094   0.94083   0.54332
  19        2S         -1.23558  -1.35697  -1.24603  -0.71964
     Alpha Density Matrix:
                           1         2         3         4         5
   1 1   P  1S          1.06691
   2        2S         -0.27505   1.14862
   3        2PX         0.00000   0.00000   0.99246
   4        2PY        -0.00441   0.02257   0.00000   1.00897
   5        2PZ         0.00000   0.00000   0.00000   0.00000   0.99246
   6        3S         -0.01774  -0.06444   0.00000  -0.04448   0.00000
   7        3PX         0.00000   0.00000  -0.01159   0.00000   0.00000
   8        3PY         0.01110  -0.05631   0.00000  -0.04900   0.00000
   9        3PZ         0.00000   0.00000   0.00000   0.00000  -0.01159
  10        4S          0.07570  -0.29896   0.00000  -0.02435   0.00000
  11        4PX         0.00000   0.00000  -0.07396   0.00000   0.00000
  12        4PY        -0.00314  -0.00724   0.00000  -0.13132   0.00000
  13        4PZ         0.00000   0.00000   0.00000   0.00000  -0.07396
  14 2   H  1S          0.00789  -0.03510   0.05770   0.03064   0.00000
  15        2S         -0.00956   0.02632   0.05284   0.01110   0.00000
  16 3   H  1S          0.00790  -0.03510  -0.02885   0.03064  -0.04997
  17        2S         -0.00956   0.02632  -0.02642   0.01110  -0.04576
  18 4   H  1S          0.00790  -0.03510  -0.02885   0.03064   0.04997
  19        2S         -0.00956   0.02632  -0.02642   0.01110   0.04576
                           6         7         8         9        10
   6        3S          0.26621
   7        3PX         0.00000   0.21167
   8        3PY         0.09195   0.00000   0.29688
   9        3PZ         0.00000   0.00000   0.00000   0.21168
  10        4S          0.26336  -0.00001   0.09758   0.00000   0.31111
  11        4PX         0.00000   0.09417   0.00000   0.00000   0.00000
  12        4PY         0.05843   0.00000   0.21365   0.00000   0.05374
  13        4PZ         0.00000   0.00000   0.00000   0.09417   0.00000
  14 2   H  1S          0.03222  -0.10996  -0.05668   0.00000   0.03847
  15        2S         -0.00750  -0.12952  -0.04291   0.00000  -0.01243
  16 3   H  1S          0.03222   0.05498  -0.05668   0.09523   0.03847
  17        2S         -0.00750   0.06476  -0.04291   0.11217  -0.01243
  18 4   H  1S          0.03222   0.05498  -0.05668  -0.09523   0.03847
  19        2S         -0.00750   0.06476  -0.04291  -0.11217  -0.01243
                          11        12        13        14        15
  11        4PX         0.04667
  12        4PY         0.00000   0.16439
  13        4PZ         0.00000   0.00000   0.04667
  14 2   H  1S         -0.05250  -0.04615   0.00000   0.08300
  15        2S         -0.06080  -0.03096   0.00000   0.07857   0.08807
  16 3   H  1S          0.02625  -0.04614   0.04547  -0.00672  -0.02593
  17        2S          0.03040  -0.03096   0.05265  -0.02593  -0.03398
  18 4   H  1S          0.02625  -0.04614  -0.04547  -0.00672  -0.02593
  19        2S          0.03040  -0.03096  -0.05265  -0.02593  -0.03398
                          16        17        18        19
  16 3   H  1S          0.08301
  17        2S          0.07857   0.08807
  18 4   H  1S         -0.00672  -0.02593   0.08301
  19        2S         -0.02593  -0.03398   0.07857   0.08807
     Beta Density Matrix:
                           1         2         3         4         5
   1 1   P  1S          1.06561
   2        2S         -0.26805   1.11082
   3        2PX         0.00000   0.00000   0.98766
   4        2PY         0.00436  -0.02455   0.00000   0.95183
   5        2PZ         0.00000   0.00000   0.00000   0.00000   0.98766
   6        3S         -0.02823  -0.00782   0.00000   0.02645   0.00000
   7        3PX         0.00000   0.00000   0.00055   0.00000   0.00000
   8        3PY        -0.00866   0.04995   0.00000   0.07455   0.00000
   9        3PZ         0.00000   0.00000   0.00000   0.00000   0.00055
  10        4S          0.06369  -0.23381   0.00000   0.04775   0.00000
  11        4PX         0.00000   0.00000  -0.06565   0.00000   0.00000
  12        4PY        -0.01377   0.05035   0.00000  -0.03904   0.00000
  13        4PZ         0.00000   0.00000   0.00000   0.00000  -0.06565
  14 2   H  1S          0.01054  -0.04937   0.05665   0.01344   0.00000
  15        2S         -0.00608   0.00749   0.05785  -0.00539   0.00000
  16 3   H  1S          0.01054  -0.04937  -0.02832   0.01344  -0.04906
  17        2S         -0.00608   0.00750  -0.02892  -0.00539  -0.05010
  18 4   H  1S          0.01054  -0.04937  -0.02832   0.01344   0.04906
  19        2S         -0.00608   0.00750  -0.02892  -0.00539   0.05010
                           6         7         8         9        10
   6        3S          0.18253
   7        3PX         0.00000   0.18139
   8        3PY        -0.06447   0.00000   0.03244
   9        3PZ         0.00000   0.00000   0.00000   0.18139
  10        4S          0.16684  -0.00001  -0.06713   0.00000   0.20032
  11        4PX         0.00000   0.07414   0.00000   0.00000  -0.00001
  12        4PY        -0.03285   0.00000   0.01076   0.00000  -0.04091
  13        4PZ         0.00000   0.00000   0.00000   0.07414   0.00000
  14 2   H  1S          0.05366  -0.10601  -0.02059   0.00000   0.05901
  15        2S          0.01951  -0.13846  -0.00725   0.00000   0.01595
  16 3   H  1S          0.05366   0.05301  -0.02059   0.09181   0.05900
  17        2S          0.01951   0.06923  -0.00725   0.11991   0.01593
  18 4   H  1S          0.05366   0.05301  -0.02059  -0.09181   0.05900
  19        2S          0.01951   0.06923  -0.00725  -0.11991   0.01593
                          11        12        13        14        15
  11        4PX         0.03470
  12        4PY         0.00000   0.00928
  13        4PZ         0.00000   0.00000   0.03469
  14 2   H  1S         -0.04713  -0.01195   0.00000   0.08309
  15        2S         -0.06048  -0.00286   0.00000   0.08962   0.11135
  16 3   H  1S          0.02356  -0.01195   0.04081  -0.01477  -0.03681
  17        2S          0.03024  -0.00285   0.05238  -0.03681  -0.05235
  18 4   H  1S          0.02356  -0.01195  -0.04081  -0.01477  -0.03681
  19        2S          0.03024  -0.00285  -0.05238  -0.03681  -0.05235
                          16        17        18        19
  16 3   H  1S          0.08309
  17        2S          0.08962   0.11135
  18 4   H  1S         -0.01477  -0.03681   0.08309
  19        2S         -0.03681  -0.05235   0.08962   0.11135
    Full Mulliken population analysis:
                           1         2         3         4         5
   1 1   P  1S          2.13252
   2        2S         -0.13642   2.25944
   3        2PX         0.00000   0.00000   1.98012
   4        2PY         0.00000   0.00000   0.00000   1.96080
   5        2PZ         0.00000   0.00000   0.00000   0.00000   1.98012
   6        3S         -0.00156  -0.02554   0.00000   0.00000   0.00000
   7        3PX         0.00000   0.00000  -0.00334   0.00000   0.00000
   8        3PY         0.00000   0.00000   0.00000   0.00773   0.00000
   9        3PZ         0.00000   0.00000   0.00000   0.00000  -0.00334
  10        4S          0.00458  -0.13586   0.00000   0.00000   0.00000
  11        4PX         0.00000   0.00000  -0.01033   0.00000   0.00000
  12        4PY         0.00000   0.00000   0.00000  -0.01260   0.00000
  13        4PZ         0.00000   0.00000   0.00000   0.00000  -0.01033
  14 2   H  1S          0.00001  -0.00060  -0.00095  -0.00024   0.00000
  15        2S         -0.00019   0.00327  -0.00357  -0.00012   0.00000
  16 3   H  1S          0.00001  -0.00060  -0.00024  -0.00024  -0.00071
  17        2S         -0.00019   0.00327  -0.00089  -0.00012  -0.00268
  18 4   H  1S          0.00001  -0.00060  -0.00024  -0.00024  -0.00071
  19        2S         -0.00019   0.00327  -0.00089  -0.00012  -0.00268
                           6         7         8         9        10
   6        3S          0.44874
   7        3PX         0.00000   0.39306
   8        3PY         0.00000   0.00000   0.32931
   9        3PZ         0.00000   0.00000   0.00000   0.39307
  10        4S          0.35878   0.00000   0.00000   0.00000   0.51144
  11        4PX         0.00000   0.10883   0.00000   0.00000   0.00000
  12        4PY         0.00000   0.00000   0.14510   0.00000   0.00000
  13        4PZ         0.00000   0.00000   0.00000   0.10883   0.00000
  14 2   H  1S          0.01263   0.04924   0.01139   0.00000   0.02349
  15        2S          0.00477   0.08462   0.01024   0.00000   0.00201
  16 3   H  1S          0.01263   0.01231   0.01140   0.03693   0.02349
  17        2S          0.00477   0.02116   0.01024   0.06347   0.00200
  18 4   H  1S          0.01263   0.01231   0.01140   0.03693   0.02349
  19        2S          0.00477   0.02116   0.01024   0.06347   0.00200
                          11        12        13        14        15
  11        4PX         0.08136
  12        4PY         0.00000   0.17368
  13        4PZ         0.00000   0.00000   0.08136
  14 2   H  1S          0.03320   0.01252   0.00000   0.16609
  15        2S          0.06554   0.01182   0.00000   0.10863   0.19941
  16 3   H  1S          0.00830   0.01252   0.02490  -0.00003  -0.00405
  17        2S          0.01639   0.01182   0.04916  -0.00405  -0.02135
  18 4   H  1S          0.00830   0.01252   0.02490  -0.00003  -0.00405
  19        2S          0.01639   0.01182   0.04916  -0.00405  -0.02135
                          16        17        18        19
  16 3   H  1S          0.16610
  17        2S          0.10863   0.19942
  18 4   H  1S         -0.00003  -0.00405   0.16610
  19        2S         -0.00405  -0.02135   0.10863   0.19942
     Gross orbital populations:
                         Total     Alpha     Beta      Spin
   1 1   P  1S          1.99858   0.99937   0.99921   0.00016
   2        2S          1.96961   0.98740   0.98221   0.00519
   3        2PX         1.95966   0.98020   0.97946   0.00075
   4        2PY         1.95486   0.98325   0.97161   0.01164
   5        2PZ         1.95966   0.98020   0.97946   0.00075
   6        3S          0.83262   0.46775   0.36487   0.10288
   7        3PX         0.69935   0.36801   0.33134   0.03668
   8        3PY         0.54706   0.47157   0.07549   0.39608
   9        3PZ         0.69936   0.36802   0.33134   0.03668
  10        4S          0.81540   0.46350   0.35189   0.11161
  11        4PX         0.32798   0.17762   0.15036   0.02725
  12        4PY         0.37920   0.35513   0.02407   0.33106
  13        4PZ         0.32797   0.17761   0.15036   0.02725
  14 2   H  1S          0.40724   0.20436   0.20288   0.00149
  15        2S          0.43564   0.20242   0.23323  -0.03081
  16 3   H  1S          0.40726   0.20437   0.20289   0.00148
  17        2S          0.43564   0.20242   0.23323  -0.03081
  18 4   H  1S          0.40726   0.20437   0.20289   0.00148
  19        2S          0.43564   0.20242   0.23323  -0.03081
          Condensed to atoms (all electrons):
              1          2          3          4
     1  P   13.514089   0.319079   0.319073   0.319073
     2  H    0.319079   0.582766  -0.029480  -0.029480
     3  H    0.319073  -0.029480   0.582790  -0.029483
     4  H    0.319073  -0.029480  -0.029483   0.582790
 Mulliken atomic charges:
              1
     1  P    0.528686
     2  H    0.157114
     3  H    0.157100
     4  H    0.157100
 Sum of Mulliken atomic charges =   1.00000
 Mulliken charges with hydrogens summed into heavy atoms:
              1
     1  P    1.000000
 Sum of Mulliken charges with hydrogens summed into heavy atoms =   1.00000
          Atomic-Atomic Spin Densities.
              1          2          3          4
     1  P    1.098775  -0.003601  -0.003600  -0.003600
     2  H   -0.003601  -0.037634   0.005958   0.005958
     3  H   -0.003600   0.005958  -0.037645   0.005959
     4  H   -0.003600   0.005958   0.005959  -0.037645
 Mulliken atomic spin densities:
              1
     1  P    1.087975
     2  H   -0.029319
     3  H   -0.029328
     4  H   -0.029328
 Sum of Mulliken atomic spin densities =   1.00000
 Electronic spatial extent (au):  <R**2>=             46.2669
 Charge=              1.0000 electrons
 Dipole moment (field-independent basis, Debye):
    X=              0.0000    Y=             -0.1443    Z=              0.0000  Tot=              0.1443
 Quadrupole moment (field-independent basis, Debye-Ang):
   XX=            -11.6615   YY=            -11.2417   ZZ=            -11.6618
   XY=              0.0000   XZ=              0.0000   YZ=              0.0000
 Traceless Quadrupole moment (field-independent basis, Debye-Ang):
   XX=             -0.1398   YY=              0.2799   ZZ=             -0.1401
   XY=              0.0000   XZ=              0.0000   YZ=              0.0000
 Octapole moment (field-independent basis, Debye-Ang**2):
  XXX=             -0.6207  YYY=              0.6536  ZZZ=              0.0000  XYY=              0.0000
  XXY=             -0.4766  XXZ=              0.0000  XZZ=              0.6206  YZZ=             -0.4764
  YYZ=              0.0000  XYZ=              0.0000
 Hexadecapole moment (field-independent basis, Debye-Ang**3):
 XXXX=            -24.3788 YYYY=            -20.8211 ZZZZ=            -24.3786 XXXY=              0.8031
 XXXZ=              0.0000 YYYX=              0.0000 YYYZ=              0.0000 ZZZX=              0.0000
 ZZZY=              0.0000 XXYY=             -6.9396 XXZZ=             -8.1263 YYZZ=             -6.9396
 XXYZ=              0.0000 YYXZ=              0.0000 ZZXY=             -0.8030
 N-N= 1.752628064564D+01 E-N=-1.255022577925D+03  KE= 5.093510723675D+02
 Symmetry A'   KE= 4.621660038125D+02
 Symmetry A"   KE= 4.718506855503D+01
 Orbital energies and kinetic energies (alpha):
                                 1                 2
   1         O               -79.743115        105.409353
   2         O                -7.819693         16.233943
   3         O                -5.713084         14.575446
   4         O                -5.701207         14.571471
   5         O                -5.701206         14.571471
   6         O                -1.213044          1.679481
   7         O                -0.823417          1.201005
   8         O                -0.823415          1.201022
   9         O                -0.778076          1.554576
  10         V                -0.107698          0.894444
  11         V                -0.107697          0.894433
  12         V                 0.011485          1.500352
  13         V                 0.293207          2.267276
  14         V                 0.310904          2.305598
  15         V                 0.310905          2.305607
  16         V                 0.456188          1.480514
  17         V                 0.941683          2.564340
  18         V                 0.983203          2.381358
  19         V                 0.983206          2.381351
 Orbital energies and kinetic energies (beta):
                                 1                 2
   1         O               -79.733169        105.412408
   2         O                -7.805100         16.235261
   3         O                -5.692998         14.577988
   4         O                -5.692998         14.577988
   5         O                -5.681252         14.560625
   6         O                -1.143096          1.555797
   7         O                -0.801241          1.128286
   8         O                -0.801241          1.128300
   9         V                -0.320369          1.233410
  10         V                -0.070838          0.868294
  11         V                -0.070837          0.868302
  12         V                 0.019902          1.485312
  13         V                 0.327551          2.376731
  14         V                 0.327552          2.376740
  15         V                 0.375658          2.678080
  16         V                 0.470721          1.525492
  17         V                 0.945921          2.578897
  18         V                 0.988663          2.402569
  19         V                 0.988666          2.402561
 Total kinetic energy from orbitals= 3.401744196004D+02
                          Isotropic Fermi Contact Couplings
        Atom                 a.u.       MegaHertz       Gauss      10(-4) cm-1
     1  P(31)              0.93559    1694.44858     604.62137     565.20721
     2  H(1)               0.00100       4.45039       1.58801       1.48449
     3  H(1)               0.00099       4.43775       1.58350       1.48028
     4  H(1)               0.00099       4.43775       1.58350       1.48028
 --------------------------------------------------------
       Center         ----  Spin Dipole Couplings  ----
                      3XX-RR        3YY-RR        3ZZ-RR
 --------------------------------------------------------
     1   Atom       -1.019062      2.038107     -1.019045
     2   Atom        0.021524      0.002990     -0.024515
     3   Atom       -0.013005      0.002992      0.010013
     4   Atom       -0.013005      0.002992      0.010013
 --------------------------------------------------------
                        XY            XZ            YZ
 --------------------------------------------------------
     1   Atom        0.000032      0.000000      0.000000
     2   Atom        0.019904      0.000000      0.000000
     3   Atom       -0.009953      0.019936     -0.017238
     4   Atom       -0.009953     -0.019936      0.017238
 --------------------------------------------------------


 ---------------------------------------------------------------------------------
              Anisotropic Spin Dipole Couplings in Principal Axis System
 ---------------------------------------------------------------------------------

       Atom             a.u.   MegaHertz   Gauss  10(-4) cm-1        Axes

              Baa    -1.0191  -220.305   -78.610   -73.486  1.0000  0.0000  0.0000
     1 P(31)  Bbb    -1.0190  -220.301   -78.609   -73.485  0.0000  0.0000  1.0000
              Bcc     2.0381   440.606   157.219   146.970  0.0000  1.0000  0.0000
 
              Baa    -0.0245   -13.080    -4.667    -4.363  0.0000  0.0000  1.0000
     2 H(1)   Bbb    -0.0097    -5.175    -1.846    -1.726 -0.5375  0.8432  0.0000
              Bcc     0.0342    18.254     6.514     6.089  0.8432  0.5375  0.0000
 
              Baa    -0.0245   -13.080    -4.667    -4.363  0.8660  0.0000 -0.5000
     3 H(1)   Bbb    -0.0097    -5.174    -1.846    -1.726  0.2688  0.8432  0.4655
              Bcc     0.0342    18.255     6.514     6.089  0.4216 -0.5376  0.7302
 
              Baa    -0.0245   -13.080    -4.667    -4.363  0.8660  0.0000  0.5000
     4 H(1)   Bbb    -0.0097    -5.174    -1.846    -1.726  0.2688  0.8432 -0.4655
              Bcc     0.0342    18.255     6.514     6.089 -0.4216  0.5376  0.7302
 

 ---------------------------------------------------------------------------------

 1|1|UNPC-DESKTOP-RA5CP68|SP|UHF|3-21G|H3P1(1+,2)|FELIPE|07-Nov-2023|0|
 |# hf/3-21g pop=full||PH3-CHARGE1-HF-MULT2||1,2|P,0,0.,0.,0.|H,0,0.,-1
 .1932,-0.7717|H,0,1.0333,0.5966,-0.7717|H,0,-1.0333,0.5966,-0.7717||Ve
 rsion=IA32W-G09RevB.01|State=2-A'|HF=-340.3507604|S2=0.755328|S2-1=0.|
 S2A=0.750018|RMSD=6.465e-009|Dipole=0.,-0.0000045,-0.0567814|Quadrupol
 e=-0.1041605,-0.1039743,0.2081348,0.,0.,0.0000364|PG=CS [SG(H1P1),X(H2
 )]||@


 TO BEHOLD HARMS OF OUR OWN HANDS DOING,
 WHERE NONE BESIDE US WROUGHT,
 CAUSES SHARP RUING...

                                         SOPHOCLES
 Job cpu time:  0 days  0 hours  0 minutes  1.0 seconds.
 File lengths (MBytes):  RWF=      5 Int=      0 D2E=      0 Chk=      1 Scr=      1
 Normal termination of Gaussian 09 at Tue Nov 07 19:01:17 2023.
