 Entering Link 1 = C:\G09W\l1.exe PID=      7716.
  
 Copyright (c) 1988,1990,1992,1993,1995,1998,2003,2009,2010,
            Gaussian, Inc.  All Rights Reserved.
  
 This is part of the Gaussian(R) 09 program.  It is based on
 the Gaussian(R) 03 system (copyright 2003, Gaussian, Inc.),
 the Gaussian(R) 98 system (copyright 1998, Gaussian, Inc.),
 the Gaussian(R) 94 system (copyright 1995, Gaussian, Inc.),
 the Gaussian 92(TM) system (copyright 1992, Gaussian, Inc.),
 the Gaussian 90(TM) system (copyright 1990, Gaussian, Inc.),
 the Gaussian 88(TM) system (copyright 1988, Gaussian, Inc.),
 the Gaussian 86(TM) system (copyright 1986, Carnegie Mellon
 University), and the Gaussian 82(TM) system (copyright 1983,
 Carnegie Mellon University). Gaussian is a federally registered
 trademark of Gaussian, Inc.
  
 This software contains proprietary and confidential information,
 including trade secrets, belonging to Gaussian, Inc.
  
 This software is provided under written license and may be
 used, copied, transmitted, or stored only in accord with that
 written license.
  
 The following legend is applicable only to US Government
 contracts under FAR:
  
                    RESTRICTED RIGHTS LEGEND
  
 Use, reproduction and disclosure by the US Government is
 subject to restrictions as set forth in subparagraphs (a)
 and (c) of the Commercial Computer Software - Restricted
 Rights clause in FAR 52.227-19.
  
 Gaussian, Inc.
 340 Quinnipiac St., Bldg. 40, Wallingford CT 06492
  
  
 ---------------------------------------------------------------
 Warning -- This program may not be used in any manner that
 competes with the business of Gaussian, Inc. or will provide
 assistance to any competitor of Gaussian, Inc.  The licensee
 of this program is prohibited from giving any competitor of
 Gaussian, Inc. access to this program.  By using this program,
 the user acknowledges that Gaussian, Inc. is engaged in the
 business of creating and licensing software in the field of
 computational chemistry and represents and warrants to the
 licensee that it is not a competitor of Gaussian, Inc. and that
 it will not use this program in any manner prohibited above.
 ---------------------------------------------------------------
  

 Cite this work as:
 Gaussian 09, Revision B.01,
 M. J. Frisch, G. W. Trucks, H. B. Schlegel, G. E. Scuseria, 
 M. A. Robb, J. R. Cheeseman, G. Scalmani, V. Barone, B. Mennucci, 
 G. A. Petersson, H. Nakatsuji, M. Caricato, X. Li, H. P. Hratchian, 
 A. F. Izmaylov, J. Bloino, G. Zheng, J. L. Sonnenberg, M. Hada, 
 M. Ehara, K. Toyota, R. Fukuda, J. Hasegawa, M. Ishida, T. Nakajima, 
 Y. Honda, O. Kitao, H. Nakai, T. Vreven, J. A. Montgomery, Jr., 
 J. E. Peralta, F. Ogliaro, M. Bearpark, J. J. Heyd, E. Brothers, 
 K. N. Kudin, V. N. Staroverov, T. Keith, R. Kobayashi, J. Normand, 
 K. Raghavachari, A. Rendell, J. C. Burant, S. S. Iyengar, J. Tomasi, 
 M. Cossi, N. Rega, J. M. Millam, M. Klene, J. E. Knox, J. B. Cross, 
 V. Bakken, C. Adamo, J. Jaramillo, R. Gomperts, R. E. Stratmann, 
 O. Yazyev, A. J. Austin, R. Cammi, C. Pomelli, J. W. Ochterski, 
 R. L. Martin, K. Morokuma, V. G. Zakrzewski, G. A. Voth, 
 P. Salvador, J. J. Dannenberg, S. Dapprich, A. D. Daniels, 
 O. Farkas, J. B. Foresman, J. V. Ortiz, J. Cioslowski, 
 and D. J. Fox, Gaussian, Inc., Wallingford CT, 2010.
 
 ******************************************
 Gaussian 09:  IA32W-G09RevB.01 12-Aug-2010
                16-Nov-2023 
 ******************************************
 %chk=PH3-CHARGE2-ROHF-MULT5.chk
 %mem=6MW
 %nproc=1
 Will use up to    1 processors via shared memory.
 ---------------------
 # rohf/3-21g pop=full
 ---------------------
 1/38=1/1;
 2/12=2,17=6,18=5,40=1/2;
 3/5=5,11=2,16=1,25=1,30=1,116=101/1,2,3;
 4//1;
 5/5=2,38=5/2;
 6/7=3,28=1/1;
 99/5=1,9=1/99;
 ----------------------
 PH3-CHARGE2-ROHF-MULT5
 ----------------------
 Symbolic Z-matrix:
 Charge =  2 Multiplicity = 5
 P1                    0.        0.        0. 
 H2                    0.       -1.1932   -0.7717 
 H3                    1.0333    0.5966   -0.7717 
 H4                   -1.0333    0.5966   -0.7717 
 
                          Input orientation:                          
 ---------------------------------------------------------------------
 Center     Atomic      Atomic             Coordinates (Angstroms)
 Number     Number       Type             X           Y           Z
 ---------------------------------------------------------------------
      1         15           0        0.000000    0.000000    0.000000
      2          1           0        0.000000   -1.193200   -0.771700
      3          1           0        1.033300    0.596600   -0.771700
      4          1           0       -1.033300    0.596600   -0.771700
 ---------------------------------------------------------------------
                    Distance matrix (angstroms):
                    1          2          3          4
     1  P    0.000000
     2  H    1.421002   0.000000
     3  H    1.420972   2.066662   0.000000
     4  H    1.420972   2.066662   2.066600   0.000000
 Stoichiometry    H3P(2+,5)
 Framework group  CS[SG(HP),X(H2)]
 Deg. of freedom     4
 Full point group                 CS      NOp   2
 Largest Abelian subgroup         CS      NOp   2
 Largest concise Abelian subgroup CS      NOp   2
                         Standard orientation:                         
 ---------------------------------------------------------------------
 Center     Atomic      Atomic             Coordinates (Angstroms)
 Number     Number       Type             X           Y           Z
 ---------------------------------------------------------------------
      1         15           0        0.000000    0.128617    0.000000
      2          1           0       -1.193200   -0.643083    0.000000
      3          1           0        0.596600   -0.643083    1.033300
      4          1           0        0.596600   -0.643083   -1.033300
 ---------------------------------------------------------------------
 Rotational constants (GHZ):    133.2559896    133.2499140    117.4090990
 Standard basis: 3-21G (6D, 7F)
 There are    14 symmetry adapted basis functions of A'  symmetry.
 There are     5 symmetry adapted basis functions of A"  symmetry.
 Integral buffers will be    262144 words long.
 Raffenetti 2 integral format.
 Two-electron integral symmetry is turned on.
    19 basis functions,    36 primitive gaussians,    19 cartesian basis functions
    10 alpha electrons        6 beta electrons
       nuclear repulsion energy        17.5262806456 Hartrees.
 NAtoms=    4 NActive=    4 NUniq=    3 SFac= 1.78D+00 NAtFMM=   50 NAOKFM=F Big=F
 One-electron integrals computed using PRISM.
 NBasis=    19 RedAO= T  NBF=    14     5
 NBsUse=    19 1.00D-06 NBFU=    14     5
 Harris functional with IExCor=  205 diagonalized for initial guess.
 ExpMin= 1.23D-01 ExpMax= 1.05D+03 ExpMxC= 1.05D+03 IAcc=1 IRadAn=         1 AccDes= 0.00D+00
 HarFok:  IExCor=  205 AccDes= 0.00D+00 IRadAn=         1 IDoV= 1
 ScaDFX=  1.000000  1.000000  1.000000  1.000000
 FoFCou: FMM=F IPFlag=           0 FMFlag=      100000 FMFlg1=           0
         NFxFlg=           0 DoJE=T BraDBF=F KetDBF=T FulRan=T
         Omega=  0.000000  0.000000  1.000000  0.000000  0.000000 ICntrl=     500 IOpCl=  0
         NMat0=    1 NMatS0=    1 NMatT0=    0 NMatD0=    1 NMtDS0=    0 NMtDT0=    0
         I1Cent=           4 NGrid=           0.
 Petite list used in FoFCou.
 Initial guess orbital symmetries:
       Occupied  (A') (A') (A") (A') (A') (A') (A') (A") (A') (A")
       Virtual   (A') (A') (A") (A') (A') (A') (A') (A") (A')
 The electronic state of the initial guess is 5-A'.
 Requested convergence on RMS density matrix=1.00D-08 within 128 cycles.
 Requested convergence on MAX density matrix=1.00D-06.
 Requested convergence on             energy=1.00D-06.
 No special actions if energy rises.
 Keep R1 and R2 ints in memory in canonical form, NReq=856044.
 EnCoef did    43 forward-backward iterations
 EnCoef did   100 forward-backward iterations
 EnCoef did   100 forward-backward iterations
 Rare condition: small coef for last iteration:  0.152D-14
 EnCoef did   100 forward-backward iterations
 EnCoef did   100 forward-backward iterations
 EnCoef did    19 forward-backward iterations
 Rare condition: small coef for last iteration:  0.666D-15
 EnCoef did    26 forward-backward iterations
 EnCoef did   100 forward-backward iterations
 EnCoef did   100 forward-backward iterations
 EnCoef did   100 forward-backward iterations
 EnCoef did   100 forward-backward iterations
 Rare condition: small coef for last iteration: -0.217D-15
 EnCoef did    99 forward-backward iterations
 Rare condition: small coef for last iteration:  0.222D-14
 EnCoef did   100 forward-backward iterations
 Rare condition: small coef for last iteration:  0.000D+00
 EnCoef did   100 forward-backward iterations
 Rare condition: small coef for last iteration:  0.000D+00
 EnCoef did   100 forward-backward iterations
 Rare condition: small coef for last iteration:  0.000D+00
 EnCoef did   100 forward-backward iterations
 EnCoef did   100 forward-backward iterations
 EnCoef did   100 forward-backward iterations
 Rare condition: small coef for last iteration:  0.204D-15
 EnCoef did   100 forward-backward iterations
 Rare condition: small coef for last iteration:  0.000D+00
 Matrix for removal  3 Erem= -339.249126673730     Crem= 0.000D+00
 EnCoef did   100 forward-backward iterations
 Rare condition: small coef for last iteration:  0.000D+00
 Matrix for removal  5 Erem= -339.250622715583     Crem= 0.000D+00
 EnCoef did   100 forward-backward iterations
 Rare condition: small coef for last iteration: -0.163D-15
 Matrix for removal  6 Erem= -339.251151201000     Crem= 0.000D+00
 EnCoef did   100 forward-backward iterations
 Matrix for removal  7 Erem= -339.251226894534     Crem= 0.000D+00
 EnCoef did   100 forward-backward iterations
 Matrix for removal 13 Erem= -339.251297007224     Crem= 0.000D+00
 EnCoef did   100 forward-backward iterations
 Rare condition: small coef for last iteration:  0.223D-14
 Matrix for removal 18 Erem= -339.251297228523     Crem= 0.000D+00
 EnCoef did   100 forward-backward iterations
 Rare condition: small coef for last iteration:  0.168D-15
 Matrix for removal 17 Erem= -339.251306013142     Crem= 0.000D+00
 EnCoef did   100 forward-backward iterations
 Rare condition: small coef for last iteration:  0.164D-15
 Matrix for removal 16 Erem= -339.251307741609     Crem= 0.000D+00
 EnCoef did   100 forward-backward iterations
 Matrix for removal 19 Erem= -339.251307325094     Crem= 0.000D+00
 EnCoef did   100 forward-backward iterations
 Matrix for removal 15 Erem= -339.251308134035     Crem= 0.000D+00
 EnCoef did   100 forward-backward iterations
 Rare condition: small coef for last iteration:  0.517D-14
 Matrix for removal 18 Erem= -339.251297097250     Crem= 0.000D+00
 EnCoef did   100 forward-backward iterations
 Rare condition: small coef for last iteration:  0.000D+00
 Matrix for removal 17 Erem= -339.251309022343     Crem= 0.000D+00
 EnCoef did   100 forward-backward iterations
 Rare condition: small coef for last iteration:  0.000D+00
 Matrix for removal 19 Erem= -339.251308964160     Crem= 0.000D+00
 EnCoef did   100 forward-backward iterations
 Matrix for removal 19 Erem= -339.251307306019     Crem= 0.000D+00
 EnCoef did   100 forward-backward iterations
 Matrix for removal 12 Erem= -339.251320831746     Crem= 0.000D+00
 EnCoef did   100 forward-backward iterations
 Rare condition: small coef for last iteration: -0.264D-14
 Matrix for removal 18 Erem= -339.251297088978     Crem= 0.000D+00
 EnCoef did   100 forward-backward iterations
 Rare condition: small coef for last iteration:  0.000D+00
 Matrix for removal 11 Erem= -339.251321410654     Crem= 0.000D+00
 EnCoef did   100 forward-backward iterations
 Rare condition: small coef for last iteration:  0.000D+00
 Matrix for removal 19 Erem= -339.251309112139     Crem= 0.000D+00
 EnCoef did   100 forward-backward iterations
 Matrix for removal 19 Erem= -339.251307300128     Crem= 0.000D+00
 EnCoef did   100 forward-backward iterations
 Matrix for removal  7 Erem= -339.251330305348     Crem= 0.000D+00
 EnCoef did   100 forward-backward iterations
 Rare condition: small coef for last iteration: -0.650D-14
 Matrix for removal 18 Erem= -339.251297122370     Crem= 0.000D+00
 EnCoef did   100 forward-backward iterations
 Rare condition: small coef for last iteration:  0.000D+00
 Matrix for removal  9 Erem= -339.251323977653     Crem= 0.000D+00
 EnCoef did   100 forward-backward iterations
 Rare condition: small coef for last iteration:  0.000D+00
 Matrix for removal 19 Erem= -339.251309129893     Crem= 0.000D+00
 EnCoef did   100 forward-backward iterations
 Matrix for removal 19 Erem= -339.251307296457     Crem= 0.000D+00
 EnCoef did   100 forward-backward iterations
 Matrix for removal  3 Erem= -339.251336222677     Crem= 0.000D+00
 EnCoef did   100 forward-backward iterations
 Rare condition: small coef for last iteration:  0.000D+00
 Matrix for removal 18 Erem= -339.251297127114     Crem= 0.000D+00
 EnCoef did   100 forward-backward iterations
 Rare condition: small coef for last iteration:  0.000D+00
 Matrix for removal 12 Erem= -339.251337385536     Crem= 0.000D+00
 EnCoef did   100 forward-backward iterations
 Rare condition: small coef for last iteration:  0.000D+00
 Matrix for removal 19 Erem= -339.251309963254     Crem= 0.000D+00
 EnCoef did   100 forward-backward iterations
 Matrix for removal 19 Erem= -339.251307217852     Crem= 0.000D+00
 EnCoef did   100 forward-backward iterations
 Matrix for removal 15 Erem= -339.251337420542     Crem= 0.000D+00
 EnCoef did   100 forward-backward iterations
 Rare condition: small coef for last iteration:  0.306D-15
 Matrix for removal 18 Erem= -339.251297325410     Crem= 0.000D+00
 EnCoef did   100 forward-backward iterations
 Rare condition: small coef for last iteration:  0.000D+00
 Matrix for removal 13 Erem= -339.251337422825     Crem= 0.000D+00
 EnCoef did   100 forward-backward iterations
 Rare condition: small coef for last iteration:  0.000D+00
 Matrix for removal 19 Erem= -339.251309928893     Crem= 0.000D+00
 EnCoef did   100 forward-backward iterations
 Matrix for removal 19 Erem= -339.251307210785     Crem= 0.000D+00
 EnCoef did   100 forward-backward iterations
 Matrix for removal 10 Erem= -339.251337449222     Crem= 0.000D+00
 EnCoef did   100 forward-backward iterations
 Rare condition: small coef for last iteration:  0.917D-15
 Matrix for removal 18 Erem= -339.251297319876     Crem= 0.000D+00
 EnCoef did   100 forward-backward iterations
 Rare condition: small coef for last iteration: -0.168D-15
 Matrix for removal 16 Erem= -339.251337590614     Crem= 0.000D+00
 EnCoef did   100 forward-backward iterations
 Rare condition: small coef for last iteration:  0.819D-16
 Matrix for removal 19 Erem= -339.251309929377     Crem= 0.000D+00
 EnCoef did   100 forward-backward iterations
 Matrix for removal 19 Erem= -339.251307210844     Crem= 0.000D+00
 EnCoef did   100 forward-backward iterations
 Matrix for removal 17 Erem= -339.251337590711     Crem= 0.000D+00
 EnCoef did   100 forward-backward iterations
 Rare condition: small coef for last iteration:  0.815D-15
 Matrix for removal 18 Erem= -339.251297319975     Crem= 0.000D+00
 EnCoef did   100 forward-backward iterations
 Rare condition: small coef for last iteration:  0.000D+00
 Matrix for removal 18 Erem= -339.251337590712     Crem= 0.000D+00
 EnCoef did   100 forward-backward iterations
 Rare condition: small coef for last iteration:  0.000D+00
 Matrix for removal 19 Erem= -339.251309929390     Crem= 0.000D+00
 EnCoef did   100 forward-backward iterations
 Matrix for removal 19 Erem= -339.251307210842     Crem= 0.000D+00
 EnCoef did   100 forward-backward iterations
 Matrix for removal 14 Erem= -339.251337643691     Crem= 0.000D+00
 EnCoef did   100 forward-backward iterations
 Rare condition: small coef for last iteration: -0.326D-14
 Matrix for removal 18 Erem= -339.251297319979     Crem= 0.000D+00
 EnCoef did   100 forward-backward iterations
 Rare condition: small coef for last iteration:  0.000D+00
 Matrix for removal 18 Erem= -339.251337590712     Crem= 0.000D+00
 EnCoef did   100 forward-backward iterations
 Rare condition: small coef for last iteration: -0.164D-15
 Matrix for removal 19 Erem= -339.251309929391     Crem= 0.000D+00
 EnCoef did   100 forward-backward iterations
 Matrix for removal 19 Erem= -339.251307210841     Crem= 0.000D+00
 EnCoef did   100 forward-backward iterations
 Matrix for removal  8 Erem= -339.251338841244     Crem= 0.000D+00
 EnCoef did   100 forward-backward iterations
 Rare condition: small coef for last iteration: -0.245D-14
 Matrix for removal 18 Erem= -339.251297319979     Crem= 0.000D+00
 EnCoef did   100 forward-backward iterations
 Rare condition: small coef for last iteration:  0.000D+00
 Matrix for removal 18 Erem= -339.251337590712     Crem= 0.000D+00
 EnCoef did   100 forward-backward iterations
 Rare condition: small coef for last iteration:  0.000D+00
 Matrix for removal 19 Erem= -339.251309929392     Crem= 0.000D+00
 EnCoef did   100 forward-backward iterations
 Matrix for removal 19 Erem= -339.251307210841     Crem= 0.000D+00
 EnCoef did   100 forward-backward iterations
 Matrix for removal  4 Erem= -339.251344996949     Crem= 0.000D+00
 EnCoef did    50 forward-backward iterations
 EnCoef did    21 forward-backward iterations
 Rare condition: small coef for last iteration: -0.444D-15
 EnCoef did   100 forward-backward iterations
 EnCoef did   100 forward-backward iterations
 Rare condition: small coef for last iteration: -0.393D-14
 EnCoef did   100 forward-backward iterations
 Rare condition: small coef for last iteration:  0.000D+00
 EnCoef did   100 forward-backward iterations
 Rare condition: small coef for last iteration:  0.930D-16
 EnCoef did   100 forward-backward iterations
 Rare condition: small coef for last iteration:  0.000D+00
 EnCoef did   100 forward-backward iterations
 Rare condition: small coef for last iteration:  0.000D+00
 EnCoef did   100 forward-backward iterations
 Rare condition: small coef for last iteration:  0.000D+00
 EnCoef did   100 forward-backward iterations
 EnCoef did   100 forward-backward iterations
 Rare condition: small coef for last iteration: -0.114D-14
 EnCoef did   100 forward-backward iterations
 Rare condition: small coef for last iteration:  0.000D+00
 EnCoef did   100 forward-backward iterations
 Rare condition: small coef for last iteration:  0.000D+00
 EnCoef did   100 forward-backward iterations
 Rare condition: small coef for last iteration:  0.000D+00
 EnCoef did   100 forward-backward iterations
 Rare condition: small coef for last iteration:  0.000D+00
 Matrix for removal  5 Erem= -339.240101340385     Crem= 0.000D+00
 EnCoef did   100 forward-backward iterations
 Matrix for removal  6 Erem= -339.250921190584     Crem= 0.000D+00
 EnCoef did   100 forward-backward iterations
 Rare condition: small coef for last iteration: -0.381D-15
 Matrix for removal 13 Erem= -339.251216524288     Crem= 0.000D+00
 EnCoef did   100 forward-backward iterations
 Rare condition: small coef for last iteration:  0.000D+00
 Matrix for removal 17 Erem= -339.251216713669     Crem= 0.000D+00
 EnCoef did   100 forward-backward iterations
 Rare condition: small coef for last iteration:  0.901D-16
 Matrix for removal 11 Erem= -339.251216761362     Crem= 0.000D+00
 EnCoef did   100 forward-backward iterations
 Rare condition: small coef for last iteration:  0.000D+00
 Matrix for removal 16 Erem= -339.251216763673     Crem= 0.000D+00
 EnCoef did   100 forward-backward iterations
 Rare condition: small coef for last iteration:  0.000D+00
 Matrix for removal 19 Erem= -339.251217005231     Crem= 0.000D+00
 EnCoef did   100 forward-backward iterations
 Matrix for removal 19 Erem= -339.251217055856     Crem= 0.000D+00
 EnCoef did   100 forward-backward iterations
 Rare condition: small coef for last iteration:  0.762D-15
 Matrix for removal 19 Erem= -339.251216638054     Crem= 0.000D+00
 EnCoef did   100 forward-backward iterations
 Rare condition: small coef for last iteration:  0.000D+00
 Matrix for removal 15 Erem= -339.251217268581     Crem= 0.000D+00
 EnCoef did   100 forward-backward iterations
 Rare condition: small coef for last iteration:  0.000D+00
 Matrix for removal 11 Erem= -339.251217357931     Crem= 0.000D+00
 EnCoef did   100 forward-backward iterations
 Rare condition: small coef for last iteration:  0.000D+00
 Matrix for removal 13 Erem= -339.251217551001     Crem= 0.000D+00
 EnCoef did   100 forward-backward iterations
 Rare condition: small coef for last iteration:  0.000D+00
 Matrix for removal 19 Erem= -339.251216878659     Crem= 0.000D+00
 EnCoef did   100 forward-backward iterations
 Matrix for removal 19 Erem= -339.251217211745     Crem= 0.000D+00
 EnCoef did   100 forward-backward iterations
 Rare condition: small coef for last iteration:  0.952D-16
 Matrix for removal 19 Erem= -339.251216579139     Crem= 0.000D+00
 EnCoef did   100 forward-backward iterations
 Rare condition: small coef for last iteration:  0.000D+00
 Matrix for removal 15 Erem= -339.251218995584     Crem= 0.000D+00
 EnCoef did   100 forward-backward iterations
 Rare condition: small coef for last iteration:  0.000D+00
 Matrix for removal 17 Erem= -339.251219643011     Crem= 0.000D+00
 EnCoef did   100 forward-backward iterations
 Rare condition: small coef for last iteration:  0.000D+00
 Matrix for removal 19 Erem= -339.251220214161     Crem= 0.000D+00
 EnCoef did   100 forward-backward iterations
 Rare condition: small coef for last iteration:  0.000D+00
 Matrix for removal 19 Erem= -339.251216768651     Crem= 0.000D+00
 EnCoef did   100 forward-backward iterations
 Matrix for removal 19 Erem= -339.251217348796     Crem= 0.000D+00
 EnCoef did   100 forward-backward iterations
 Rare condition: small coef for last iteration:  0.190D-15
 Matrix for removal 19 Erem= -339.251216527704     Crem= 0.000D+00
 EnCoef did   100 forward-backward iterations
 Rare condition: small coef for last iteration:  0.000D+00
 Matrix for removal 10 Erem= -339.251220252292     Crem= 0.000D+00
 EnCoef did   100 forward-backward iterations
 Rare condition: small coef for last iteration:  0.000D+00
 Matrix for removal 11 Erem= -339.251220768900     Crem= 0.000D+00
 EnCoef did   100 forward-backward iterations
 Rare condition: small coef for last iteration:  0.894D-16
 Matrix for removal 19 Erem= -339.251217550348     Crem= 0.000D+00
 EnCoef did   100 forward-backward iterations
 Rare condition: small coef for last iteration:  0.000D+00
 Matrix for removal 19 Erem= -339.251217268977     Crem= 0.000D+00
 EnCoef did   100 forward-backward iterations
 Rare condition: small coef for last iteration:  0.000D+00
 Matrix for removal 19 Erem= -339.251216713433     Crem= 0.000D+00
 EnCoef did   100 forward-backward iterations
 Matrix for removal 19 Erem= -339.251216763816     Crem= 0.000D+00
 EnCoef did   100 forward-backward iterations
 Rare condition: small coef for last iteration: -0.571D-15
 Matrix for removal 19 Erem= -339.251216644292     Crem= 0.000D+00
 EnCoef did   100 forward-backward iterations
 Rare condition: small coef for last iteration:  0.000D+00
 Matrix for removal 18 Erem= -339.251220770029     Crem= 0.000D+00
 EnCoef did   100 forward-backward iterations
 Rare condition: small coef for last iteration:  0.000D+00
 Matrix for removal 16 Erem= -339.251220787011     Crem= 0.000D+00
 >>>>>>>>>> Convergence criterion not met.
 SCF Done:  E(ROHF) =  -339.251219108     A.U. after  129 cycles
             Convg  =    0.8752D-05             -V/T =  1.9976
 <Sx>= 0.0000 <Sy>= 0.0000 <Sz>= 2.0000 <S**2>= 6.0000 S= 2.0000
 <L.S>= 0.000000000000E+00
 Annihilation of the first spin contaminant:
 S**2 before annihilation     6.0000,   after     6.0000
 Convergence failure -- run terminated.
 Error termination via Lnk1e in C:\G09W\l502.exe at Thu Nov 16 17:15:22 2023.
 Job cpu time:  0 days  0 hours  0 minutes  2.0 seconds.
 File lengths (MBytes):  RWF=      5 Int=      0 D2E=      0 Chk=      1 Scr=      1
