 Entering Link 1 = C:\G09W\l1.exe PID=      3260.
  
 Copyright (c) 1988,1990,1992,1993,1995,1998,2003,2009,2010,
            Gaussian, Inc.  All Rights Reserved.
  
 This is part of the Gaussian(R) 09 program.  It is based on
 the Gaussian(R) 03 system (copyright 2003, Gaussian, Inc.),
 the Gaussian(R) 98 system (copyright 1998, Gaussian, Inc.),
 the Gaussian(R) 94 system (copyright 1995, Gaussian, Inc.),
 the Gaussian 92(TM) system (copyright 1992, Gaussian, Inc.),
 the Gaussian 90(TM) system (copyright 1990, Gaussian, Inc.),
 the Gaussian 88(TM) system (copyright 1988, Gaussian, Inc.),
 the Gaussian 86(TM) system (copyright 1986, Carnegie Mellon
 University), and the Gaussian 82(TM) system (copyright 1983,
 Carnegie Mellon University). Gaussian is a federally registered
 trademark of Gaussian, Inc.
  
 This software contains proprietary and confidential information,
 including trade secrets, belonging to Gaussian, Inc.
  
 This software is provided under written license and may be
 used, copied, transmitted, or stored only in accord with that
 written license.
  
 The following legend is applicable only to US Government
 contracts under FAR:
  
                    RESTRICTED RIGHTS LEGEND
  
 Use, reproduction and disclosure by the US Government is
 subject to restrictions as set forth in subparagraphs (a)
 and (c) of the Commercial Computer Software - Restricted
 Rights clause in FAR 52.227-19.
  
 Gaussian, Inc.
 340 Quinnipiac St., Bldg. 40, Wallingford CT 06492
  
  
 ---------------------------------------------------------------
 Warning -- This program may not be used in any manner that
 competes with the business of Gaussian, Inc. or will provide
 assistance to any competitor of Gaussian, Inc.  The licensee
 of this program is prohibited from giving any competitor of
 Gaussian, Inc. access to this program.  By using this program,
 the user acknowledges that Gaussian, Inc. is engaged in the
 business of creating and licensing software in the field of
 computational chemistry and represents and warrants to the
 licensee that it is not a competitor of Gaussian, Inc. and that
 it will not use this program in any manner prohibited above.
 ---------------------------------------------------------------
  

 Cite this work as:
 Gaussian 09, Revision B.01,
 M. J. Frisch, G. W. Trucks, H. B. Schlegel, G. E. Scuseria, 
 M. A. Robb, J. R. Cheeseman, G. Scalmani, V. Barone, B. Mennucci, 
 G. A. Petersson, H. Nakatsuji, M. Caricato, X. Li, H. P. Hratchian, 
 A. F. Izmaylov, J. Bloino, G. Zheng, J. L. Sonnenberg, M. Hada, 
 M. Ehara, K. Toyota, R. Fukuda, J. Hasegawa, M. Ishida, T. Nakajima, 
 Y. Honda, O. Kitao, H. Nakai, T. Vreven, J. A. Montgomery, Jr., 
 J. E. Peralta, F. Ogliaro, M. Bearpark, J. J. Heyd, E. Brothers, 
 K. N. Kudin, V. N. Staroverov, T. Keith, R. Kobayashi, J. Normand, 
 K. Raghavachari, A. Rendell, J. C. Burant, S. S. Iyengar, J. Tomasi, 
 M. Cossi, N. Rega, J. M. Millam, M. Klene, J. E. Knox, J. B. Cross, 
 V. Bakken, C. Adamo, J. Jaramillo, R. Gomperts, R. E. Stratmann, 
 O. Yazyev, A. J. Austin, R. Cammi, C. Pomelli, J. W. Ochterski, 
 R. L. Martin, K. Morokuma, V. G. Zakrzewski, G. A. Voth, 
 P. Salvador, J. J. Dannenberg, S. Dapprich, A. D. Daniels, 
 O. Farkas, J. B. Foresman, J. V. Ortiz, J. Cioslowski, 
 and D. J. Fox, Gaussian, Inc., Wallingford CT, 2010.
 
 ******************************************
 Gaussian 09:  IA32W-G09RevB.01 12-Aug-2010
                16-Nov-2023 
 ******************************************
 %chk=PH3-CHARGE2-ROHF-MULT3.chk
 %mem=6MW
 %nproc=1
 Will use up to    1 processors via shared memory.
 ---------------------
 # rohf/3-21g pop=full
 ---------------------
 1/38=1/1;
 2/12=2,17=6,18=5,40=1/2;
 3/5=5,11=2,16=1,25=1,30=1,116=101/1,2,3;
 4//1;
 5/5=2,38=5/2;
 6/7=3,28=1/1;
 99/5=1,9=1/99;
 ----------------------
 PH3-CHARGE2-ROHF-MULT3
 ----------------------
 Symbolic Z-matrix:
 Charge =  2 Multiplicity = 3
 P1                    0.        0.        0. 
 H2                    0.       -1.1932   -0.7717 
 H3                    1.0333    0.5966   -0.7717 
 H4                   -1.0333    0.5966   -0.7717 
 
                          Input orientation:                          
 ---------------------------------------------------------------------
 Center     Atomic      Atomic             Coordinates (Angstroms)
 Number     Number       Type             X           Y           Z
 ---------------------------------------------------------------------
      1         15           0        0.000000    0.000000    0.000000
      2          1           0        0.000000   -1.193200   -0.771700
      3          1           0        1.033300    0.596600   -0.771700
      4          1           0       -1.033300    0.596600   -0.771700
 ---------------------------------------------------------------------
                    Distance matrix (angstroms):
                    1          2          3          4
     1  P    0.000000
     2  H    1.421002   0.000000
     3  H    1.420972   2.066662   0.000000
     4  H    1.420972   2.066662   2.066600   0.000000
 Stoichiometry    H3P(2+,3)
 Framework group  CS[SG(HP),X(H2)]
 Deg. of freedom     4
 Full point group                 CS      NOp   2
 Largest Abelian subgroup         CS      NOp   2
 Largest concise Abelian subgroup CS      NOp   2
                         Standard orientation:                         
 ---------------------------------------------------------------------
 Center     Atomic      Atomic             Coordinates (Angstroms)
 Number     Number       Type             X           Y           Z
 ---------------------------------------------------------------------
      1         15           0        0.000000    0.128617    0.000000
      2          1           0       -1.193200   -0.643083    0.000000
      3          1           0        0.596600   -0.643083    1.033300
      4          1           0        0.596600   -0.643083   -1.033300
 ---------------------------------------------------------------------
 Rotational constants (GHZ):    133.2559896    133.2499140    117.4090990
 Standard basis: 3-21G (6D, 7F)
 There are    14 symmetry adapted basis functions of A'  symmetry.
 There are     5 symmetry adapted basis functions of A"  symmetry.
 Integral buffers will be    262144 words long.
 Raffenetti 2 integral format.
 Two-electron integral symmetry is turned on.
    19 basis functions,    36 primitive gaussians,    19 cartesian basis functions
     9 alpha electrons        7 beta electrons
       nuclear repulsion energy        17.5262806456 Hartrees.
 NAtoms=    4 NActive=    4 NUniq=    3 SFac= 1.78D+00 NAtFMM=   50 NAOKFM=F Big=F
 One-electron integrals computed using PRISM.
 NBasis=    19 RedAO= T  NBF=    14     5
 NBsUse=    19 1.00D-06 NBFU=    14     5
 Harris functional with IExCor=  205 diagonalized for initial guess.
 ExpMin= 1.23D-01 ExpMax= 1.05D+03 ExpMxC= 1.05D+03 IAcc=1 IRadAn=         1 AccDes= 0.00D+00
 HarFok:  IExCor=  205 AccDes= 0.00D+00 IRadAn=         1 IDoV= 1
 ScaDFX=  1.000000  1.000000  1.000000  1.000000
 FoFCou: FMM=F IPFlag=           0 FMFlag=      100000 FMFlg1=           0
         NFxFlg=           0 DoJE=T BraDBF=F KetDBF=T FulRan=T
         Omega=  0.000000  0.000000  1.000000  0.000000  0.000000 ICntrl=     500 IOpCl=  0
         NMat0=    1 NMatS0=    1 NMatT0=    0 NMatD0=    1 NMtDS0=    0 NMtDT0=    0
         I1Cent=           4 NGrid=           0.
 Petite list used in FoFCou.
 Initial guess orbital symmetries:
       Occupied  (A') (A') (A") (A') (A') (A') (A') (A") (A')
       Virtual   (A") (A') (A') (A") (A') (A') (A') (A') (A") (A')
 The electronic state of the initial guess is 3-A".
 Requested convergence on RMS density matrix=1.00D-08 within 128 cycles.
 Requested convergence on MAX density matrix=1.00D-06.
 Requested convergence on             energy=1.00D-06.
 No special actions if energy rises.
 Keep R1 and R2 ints in memory in canonical form, NReq=856044.
 SCF Done:  E(ROHF) =  -339.571769405     A.U. after   16 cycles
             Convg  =    0.9658D-08             -V/T =  1.9992
 <Sx>= 0.0000 <Sy>= 0.0000 <Sz>= 1.0000 <S**2>= 2.0000 S= 1.0000
 <L.S>= 0.000000000000E+00
 Annihilation of the first spin contaminant:
 S**2 before annihilation     2.0000,   after     2.0000

 **********************************************************************

            Population analysis using the SCF density.

 **********************************************************************

 Orbital symmetries:
       Occupied  (A') (A') (A') (A") (A') (A') (A') (A") (A')
       Virtual   (A") (A') (A') (A") (A') (A') (A') (A') (A") (A')
 The electronic state is 3-A".
 Alpha  occ. eigenvalues --  -80.10327  -8.17479  -6.05886  -6.05763  -6.05443
 Alpha  occ. eigenvalues --   -1.47748  -1.11417  -0.65922  -0.56579
 Alpha virt. eigenvalues --   -0.39663  -0.37930  -0.28391   0.01804   0.03095
 Alpha virt. eigenvalues --    0.03783   0.15905   0.59238   0.62997   0.70276
     Molecular Orbital Coefficients:
                           1         2         3         4         5
                           O         O         O         O         O
     Eigenvalues --   -80.10327  -8.17479  -6.05886  -6.05763  -6.05443
   1 1   P  1S          0.98704  -0.29574   0.00101   0.00000  -0.00166
   2        2S          0.04865   0.99779  -0.00346   0.00000   0.00555
   3        2PX         0.00001   0.00215   0.95819   0.00000   0.17315
   4        2PY        -0.00010  -0.00457  -0.17289   0.00000   0.95773
   5        2PZ         0.00000   0.00000   0.00000   0.97276   0.00000
   6        3S         -0.01544   0.12924   0.00101   0.00000  -0.00480
   7        3PX         0.00000   0.00044   0.08410   0.00000   0.01494
   8        3PY         0.00035  -0.00409  -0.01572   0.00000   0.08561
   9        3PZ         0.00000   0.00000   0.00000   0.08829   0.00000
  10        4S          0.01065  -0.08626  -0.00273   0.00000   0.01492
  11        4PX         0.00000  -0.00017  -0.02842   0.00000  -0.00498
  12        4PY        -0.00210   0.02139   0.00577   0.00000  -0.03142
  13        4PZ         0.00000   0.00000   0.00000  -0.03000   0.00000
  14 2   H  1S          0.00085  -0.00448   0.00494   0.00000   0.00441
  15        2S         -0.00234   0.02129  -0.00658   0.00000  -0.00967
  16 3   H  1S          0.00086  -0.00467  -0.00346  -0.00504   0.00295
  17        2S         -0.00234   0.02133   0.00552   0.00745  -0.00757
  18 4   H  1S          0.00086  -0.00467  -0.00346   0.00504   0.00295
  19        2S         -0.00234   0.02133   0.00552  -0.00745  -0.00757
                           6         7         8         9        10
                           O         O         O         O         V
     Eigenvalues --    -1.47748  -1.11417  -0.65922  -0.56579  -0.39663
   1 1   P  1S          0.06524  -0.00099   0.00000   0.03759   0.00000
   2        2S         -0.34877   0.00597   0.00000  -0.20028   0.00000
   3        2PX        -0.00313  -0.22468   0.00000  -0.00687   0.00000
   4        2PY         0.08165  -0.00598   0.00000  -0.24984   0.00000
   5        2PZ         0.00000   0.00000  -0.21525   0.00000  -0.17664
   6        3S          0.45617  -0.00373   0.00000   0.34052   0.00000
   7        3PX         0.00739   0.49819   0.00000   0.01823   0.00000
   8        3PY        -0.17279   0.01417   0.00000   0.57017   0.00000
   9        3PZ         0.00000   0.00000   0.47573   0.00000   0.40134
  10        4S          0.45183  -0.02851   0.00000   0.25829   0.00000
  11        4PX         0.00152   0.18066   0.00000   0.02918   0.00000
  12        4PY        -0.12322   0.02071   0.00000   0.31767   0.00000
  13        4PZ         0.00000   0.00000   0.12535   0.00000   1.03495
  14 2   H  1S          0.12833  -0.24916   0.00000  -0.06554   0.00000
  15        2S          0.00498  -0.25469   0.00000  -0.03979   0.00000
  16 3   H  1S          0.13629   0.13302   0.25814  -0.09966  -0.18411
  17        2S          0.00380   0.14521   0.25370  -0.08732  -0.89426
  18 4   H  1S          0.13629   0.13302  -0.25814  -0.09966   0.18411
  19        2S          0.00380   0.14521  -0.25370  -0.08732   0.89426
                          11        12        13        14        15
                           V         V         V         V         V
     Eigenvalues --    -0.37930  -0.28391   0.01804   0.03095   0.03783
   1 1   P  1S          0.00650   0.04621   0.00000  -0.00195  -0.01637
   2        2S         -0.03747  -0.25324   0.00000   0.00240   0.07205
   3        2PX        -0.15858   0.01415   0.00000   0.30952  -0.04481
   4        2PY         0.03554   0.12874   0.00000   0.04682   0.29360
   5        2PZ         0.00000   0.00000   0.31047   0.00000   0.00000
   6        3S          0.06146   0.52444   0.00000  -0.09903  -0.35714
   7        3PX         0.36230  -0.01619   0.00000  -1.20183   0.17464
   8        3PY        -0.08858  -0.33880   0.00000  -0.17506  -1.15257
   9        3PZ         0.00000   0.00000  -1.20596   0.00000   0.00000
  10        4S          0.24628   1.26242   0.00000   0.18654   0.11335
  11        4PX         1.01923  -0.23228   0.00000   1.34668  -0.19452
  12        4PY        -0.19411  -0.95019   0.00000   0.12220   1.36212
  13        4PZ         0.00000   0.00000   1.35968   0.00000   0.00000
  14 2   H  1S          0.18294  -0.12911   0.00000   0.09800   0.02083
  15        2S          0.87428  -1.22017   0.00000   0.06007   0.12403
  16 3   H  1S         -0.12891  -0.07079  -0.10534  -0.06454   0.05526
  17        2S         -0.70758  -0.90702  -0.07933  -0.09801   0.13485
  18 4   H  1S         -0.12891  -0.07079   0.10534  -0.06454   0.05526
  19        2S         -0.70758  -0.90702   0.07933  -0.09801   0.13485
                          16        17        18        19
                           V         V         V         V
     Eigenvalues --     0.15905   0.59238   0.62997   0.70276
   1 1   P  1S         -0.04297  -0.02508   0.00000   0.01031
   2        2S          0.05865   0.06880   0.00000  -0.03135
   3        2PX        -0.01235   0.04782   0.00000   0.10722
   4        2PY        -0.02425  -0.10573   0.00000   0.03986
   5        2PZ         0.00000   0.00000  -0.12480   0.00000
   6        3S         -2.07963  -0.85834   0.00000   0.32513
   7        3PX         0.04721  -0.13999   0.00000  -0.30823
   8        3PY         0.21030   0.33284   0.00000  -0.12340
   9        3PZ         0.00000   0.00000   0.36000   0.00000
  10        4S          4.18946   2.50031   0.00000  -0.95410
  11        4PX        -0.07739   0.32453   0.00000   0.70940
  12        4PY        -1.62969  -1.12325   0.00000   0.42701
  13        4PZ         0.00000   0.00000  -0.81026   0.00000
  14 2   H  1S         -0.21222   0.24269   0.00000  -1.28295
  15        2S         -1.26307  -0.77485   0.00000   1.90152
  16 3   H  1S         -0.23325   0.86679  -0.92491   0.21229
  17        2S         -1.18591  -1.66337   1.30714  -0.13654
  18 4   H  1S         -0.23325   0.86679   0.92491   0.21229
  19        2S         -1.18591  -1.66337  -1.30714  -0.13654
     Alpha Density Matrix:
                           1         2         3         4         5
   1 1   P  1S          1.06739
   2        2S         -0.27737   1.15979
   3        2PX        -0.00019   0.00092   0.99866
   4        2PY        -0.00456   0.02288   0.00296   1.01628
   5        2PZ         0.00000   0.00000   0.00000   0.00000   0.99259
   6        3S         -0.01089  -0.09914  -0.00252  -0.05317   0.00000
   7        3PX         0.00060  -0.00302  -0.02891  -0.00717   0.00000
   8        3PY         0.01154  -0.05737  -0.00681  -0.07191   0.00000
   9        3PZ         0.00000   0.00000   0.00000   0.00000  -0.01651
  10        4S          0.07521  -0.29494   0.00300  -0.01231   0.00000
  11        4PX         0.00105  -0.00540  -0.06889  -0.00810   0.00000
  12        4PY        -0.00446   0.00052  -0.00631  -0.12074   0.00000
  13        4PZ         0.00000   0.00000   0.00000   0.00000  -0.05616
  14 2   H  1S          0.00832  -0.03754   0.06152   0.03173   0.00000
  15        2S         -0.00951   0.02581   0.04955   0.00365   0.00000
  16 3   H  1S          0.00723  -0.03137  -0.03245   0.03868  -0.06046
  17        2S         -0.01178   0.03814  -0.02801   0.01296  -0.04737
  18 4   H  1S          0.00723  -0.03137  -0.03245   0.03868   0.06046
  19        2S         -0.01178   0.03814  -0.02801   0.01296   0.04737
                           6         7         8         9        10
   6        3S          0.34102
   7        3PX         0.00779   0.25587
   8        3PY         0.11432   0.01613   0.36274
   9        3PZ         0.00000   0.00000   0.00000   0.23412
  10        4S          0.28278  -0.00620   0.07047   0.00000   0.27946
  11        4PX         0.00993   0.08808   0.01895   0.00000   0.00309
  12        4PY         0.05484   0.01522   0.19984   0.00000   0.02344
  13        4PZ         0.00000   0.00000   0.00000   0.05699   0.00000
  14 2   H  1S          0.03654  -0.12390  -0.06276   0.00000   0.04861
  15        2S         -0.00750  -0.12826  -0.02797   0.00000  -0.00275
  16 3   H  1S          0.02711   0.06521  -0.07816   0.12236   0.03251
  17        2S         -0.02571   0.07114  -0.04921   0.12135  -0.02697
  18 4   H  1S          0.02711   0.06521  -0.07816  -0.12236   0.03251
  19        2S         -0.02571   0.07114  -0.04921  -0.12135  -0.02697
                          11        12        13        14        15
  11        4PX         0.03432
  12        4PY         0.01281   0.11801
  13        4PZ         0.00000   0.00000   0.01661
  14 2   H  1S         -0.04689  -0.04200   0.00000   0.08291
  15        2S         -0.04693  -0.01780   0.00000   0.06653   0.06707
  16 3   H  1S          0.02142  -0.04591   0.03251  -0.00910  -0.02934
  17        2S          0.02357  -0.02447   0.03158  -0.03007  -0.03299
  18 4   H  1S          0.02142  -0.04591  -0.03251  -0.00910  -0.02934
  19        2S          0.02357  -0.02447  -0.03158  -0.03007  -0.03299
                          16        17        18        19
  16 3   H  1S          0.11290
  17        2S          0.09384   0.09369
  18 4   H  1S         -0.02042  -0.03706   0.11290
  19        2S         -0.03706  -0.03515   0.09384   0.09369
     Beta Density Matrix:
                           1         2         3         4         5
   1 1   P  1S          1.06597
   2        2S         -0.26984   1.11967
   3        2PX         0.00007  -0.00045   0.99861
   4        2PY         0.00483  -0.02716   0.00125   0.95386
   5        2PZ         0.00000   0.00000   0.00000   0.00000   0.94625
   6        3S         -0.02369  -0.03094  -0.00018   0.03190   0.00000
   7        3PX        -0.00009   0.00063  -0.02879  -0.00261   0.00000
   8        3PY        -0.00989   0.05682  -0.00289   0.07054   0.00000
   9        3PZ         0.00000   0.00000   0.00000   0.00000   0.08589
  10        4S          0.06550  -0.24321   0.00477   0.05222   0.00000
  11        4PX        -0.00005   0.00045  -0.06869  -0.00081   0.00000
  12        4PY        -0.01640   0.06414  -0.00413  -0.04137   0.00000
  13        4PZ         0.00000   0.00000   0.00000   0.00000  -0.02918
  14 2   H  1S          0.01079  -0.05067   0.06107   0.01536   0.00000
  15        2S         -0.00802   0.01784   0.04928  -0.00629   0.00000
  16 3   H  1S          0.01098  -0.05133  -0.03313   0.01378  -0.00490
  17        2S         -0.00849   0.02065  -0.02861  -0.00886   0.00724
  18 4   H  1S          0.01098  -0.05133  -0.03313   0.01378   0.00490
  19        2S         -0.00849   0.02065  -0.02861  -0.00886  -0.00724
                           6         7         8         9        10
   6        3S          0.22507
   7        3PX         0.00159   0.25554
   8        3PY        -0.07984   0.00573   0.03765
   9        3PZ         0.00000   0.00000   0.00000   0.00780
  10        4S          0.19483  -0.01091  -0.07680   0.00000   0.21274
  11        4PX        -0.00001   0.08755   0.00232   0.00000  -0.00444
  12        4PY        -0.05333   0.00943   0.01872   0.00000  -0.05862
  13        4PZ         0.00000   0.00000   0.00000  -0.00265   0.00000
  14 2   H  1S          0.05886  -0.12270  -0.02539   0.00000   0.06554
  15        2S          0.00605  -0.12754  -0.00528   0.00000   0.00752
  16 3   H  1S          0.06104   0.06703  -0.02134  -0.00044   0.05825
  17        2S          0.00403   0.07273   0.00058   0.00066  -0.00442
  18 4   H  1S          0.06104   0.06703  -0.02134   0.00044   0.05825
  19        2S          0.00403   0.07273   0.00058  -0.00066  -0.00442
                          11        12        13        14        15
  11        4PX         0.03347
  12        4PY         0.00354   0.01709
  13        4PZ         0.00000   0.00000   0.00090
  14 2   H  1S         -0.04498  -0.02118   0.00000   0.07862
  15        2S         -0.04577  -0.00516   0.00000   0.06393   0.06549
  16 3   H  1S          0.02432  -0.01425   0.00015  -0.01564  -0.03331
  17        2S          0.02612   0.00327  -0.00022  -0.03580  -0.03647
  18 4   H  1S          0.02432  -0.01425  -0.00015  -0.01564  -0.03331
  19        2S          0.02612   0.00327   0.00022  -0.03580  -0.03647
                          16        17        18        19
  16 3   H  1S          0.03634
  17        2S          0.01965   0.02170
  18 4   H  1S          0.03629   0.01973   0.03634
  19        2S          0.01973   0.02159   0.01965   0.02170
    Full Mulliken population analysis:
                           1         2         3         4         5
   1 1   P  1S          2.13336
   2        2S         -0.13746   2.27946
   3        2PX         0.00000   0.00000   1.99727
   4        2PY         0.00000   0.00000   0.00000   1.97013
   5        2PZ         0.00000   0.00000   0.00000   0.00000   1.93884
   6        3S         -0.00117  -0.04597   0.00000   0.00000   0.00000
   7        3PX         0.00000   0.00000  -0.01745   0.00000   0.00000
   8        3PY         0.00000   0.00000   0.00000  -0.00042   0.00000
   9        3PZ         0.00000   0.00000   0.00000   0.00000   0.02098
  10        4S          0.00462  -0.13724   0.00000   0.00000   0.00000
  11        4PX         0.00000   0.00000  -0.01018   0.00000   0.00000
  12        4PY         0.00000   0.00000   0.00000  -0.01199   0.00000
  13        4PZ         0.00000   0.00000   0.00000   0.00000  -0.00631
  14 2   H  1S          0.00001  -0.00063  -0.00102  -0.00025   0.00000
  15        2S         -0.00021   0.00422  -0.00319   0.00006   0.00000
  16 3   H  1S          0.00001  -0.00059  -0.00027  -0.00028  -0.00047
  17        2S         -0.00024   0.00568  -0.00091  -0.00009  -0.00112
  18 4   H  1S          0.00001  -0.00059  -0.00027  -0.00028  -0.00047
  19        2S         -0.00024   0.00568  -0.00091  -0.00009  -0.00112
                           6         7         8         9        10
   6        3S          0.56609
   7        3PX         0.00000   0.51142
   8        3PY         0.00000   0.00000   0.40039
   9        3PZ         0.00000   0.00000   0.00000   0.24191
  10        4S          0.39832   0.00000   0.00000   0.00000   0.49220
  11        4PX         0.00000   0.11356   0.00000   0.00000   0.00000
  12        4PY         0.00000   0.00000   0.14132   0.00000   0.00000
  13        4PZ         0.00000   0.00000   0.00000   0.03514   0.00000
  14 2   H  1S          0.01403   0.05622   0.01300   0.00000   0.02750
  15        2S         -0.00058   0.08077   0.00679   0.00000   0.00272
  16 3   H  1S          0.01296   0.01508   0.01467   0.02407   0.02187
  17        2S         -0.00861   0.02272   0.00993   0.03337  -0.01793
  18 4   H  1S          0.01296   0.01508   0.01467   0.02407   0.02187
  19        2S         -0.00861   0.02272   0.00993   0.03337  -0.01793
                          11        12        13        14        15
  11        4PX         0.06779
  12        4PY         0.00000   0.13510
  13        4PZ         0.00000   0.00000   0.01751
  14 2   H  1S          0.03061   0.01361   0.00000   0.16153
  15        2S          0.05010   0.00803   0.00000   0.08426   0.13256
  16 3   H  1S          0.00762   0.01296   0.00942  -0.00004  -0.00404
  17        2S          0.01343   0.00741   0.01468  -0.00425  -0.01718
  18 4   H  1S          0.00762   0.01296   0.00942  -0.00004  -0.00404
  19        2S          0.01343   0.00741   0.01468  -0.00425  -0.01718
                          16        17        18        19
  16 3   H  1S          0.14924
  17        2S          0.07331   0.11540
  18 4   H  1S          0.00002  -0.00112   0.14924
  19        2S         -0.00112  -0.00335   0.07331   0.11540
     Gross orbital populations:
                         Total     Alpha     Beta      Spin
   1 1   P  1S          1.99869   0.99943   0.99926   0.00018
   2        2S          1.97258   0.98902   0.98356   0.00546
   3        2PX         1.96306   0.98153   0.98153   0.00001
   4        2PY         1.95679   0.98439   0.97240   0.01199
   5        2PZ         1.95033   0.97992   0.97041   0.00951
   6        3S          0.93941   0.53139   0.40802   0.12337
   7        3PX         0.82011   0.41017   0.40994   0.00022
   8        3PY         0.61030   0.52833   0.08197   0.44636
   9        3PZ         0.41291   0.38066   0.03224   0.34842
  10        4S          0.79601   0.43754   0.35847   0.07907
  11        4PX         0.29399   0.14704   0.14694   0.00010
  12        4PY         0.32682   0.29046   0.03636   0.25410
  13        4PZ         0.09454   0.09763  -0.00309   0.10072
  14 2   H  1S          0.39030   0.20029   0.19001   0.01029
  15        2S          0.32310   0.16390   0.15920   0.00469
  16 3   H  1S          0.33443   0.24597   0.08846   0.15751
  17        2S          0.24111   0.19318   0.04793   0.14524
  18 4   H  1S          0.33443   0.24597   0.08846   0.15751
  19        2S          0.24111   0.19318   0.04793   0.14524
          Condensed to atoms (all electrons):
              1          2          3          4
     1  P   13.443016   0.301795   0.195357   0.195357
     2  H    0.301795   0.462619  -0.025509  -0.025509
     3  H    0.195357  -0.025509   0.411255  -0.005564
     4  H    0.195357  -0.025509  -0.005564   0.411255
 Mulliken atomic charges:
              1
     1  P    0.864474
     2  H    0.286604
     3  H    0.424461
     4  H    0.424461
 Sum of Mulliken atomic charges =   2.00000
 Mulliken charges with hydrogens summed into heavy atoms:
              1
     1  P    2.000000
 Sum of Mulliken charges with hydrogens summed into heavy atoms =   2.00000
          Atomic-Atomic Spin Densities.
              1          2          3          4
     1  P    1.220153   0.002739   0.078312   0.078312
     2  H    0.002739   0.009248   0.001494   0.001494
     3  H    0.078312   0.001494   0.244396  -0.021449
     4  H    0.078312   0.001494  -0.021449   0.244396
 Mulliken atomic spin densities:
              1
     1  P    1.379516
     2  H    0.014976
     3  H    0.302754
     4  H    0.302754
 Sum of Mulliken atomic spin densities =   2.00000
 Electronic spatial extent (au):  <R**2>=             36.9211
 Charge=              2.0000 electrons
 Dipole moment (field-independent basis, Debye):
    X=              0.8380    Y=             -1.6685    Z=              0.0000  Tot=              1.8671
 Quadrupole moment (field-independent basis, Debye-Ang):
   XX=             -8.3366   YY=             -8.1984   ZZ=             -5.4596
   XY=             -0.5578   XZ=              0.0000   YZ=              0.0000
 Traceless Quadrupole moment (field-independent basis, Debye-Ang):
   XX=             -1.0051   YY=             -0.8668   ZZ=              1.8720
   XY=             -0.5578   XZ=              0.0000   YZ=              0.0000
 Octapole moment (field-independent basis, Debye-Ang**2):
  XXX=             -0.6644  YYY=             -0.8851  ZZZ=              0.0000  XYY=              0.3472
  XXY=             -1.8557  XXZ=              0.0000  XZZ=              2.5753  YZZ=             -2.4407
  YYZ=              0.0000  XYZ=              0.0000
 Hexadecapole moment (field-independent basis, Debye-Ang**3):
 XXXX=            -17.4506 YYYY=            -15.3967 ZZZZ=            -10.8775 XXXY=              0.7630
 XXXZ=              0.0000 YYYX=             -0.5727 YYYZ=              0.0000 ZZZX=              0.0000
 ZZZY=              0.0000 XXYY=             -4.5838 XXZZ=             -4.5814 YYZZ=             -3.3671
 XXYZ=              0.0000 YYXZ=              0.0000 ZZXY=             -1.8980
 N-N= 1.752628064564D+01 E-N=-1.240346987080D+03  KE= 5.081952318159D+02
 Symmetry A'   KE= 4.632318383043D+02
 Symmetry A"   KE= 4.496339351156D+01
 Orbital energies and kinetic energies (alpha):
                                 1                 2
   1         O               -80.103272        105.412909
   2         O                -8.174789         16.240228
   3         O                -6.058857         14.584694
   4         O                -6.057633         14.561445
   5         O                -6.054432         14.574526
   6         O                -1.477481          1.685057
   7         O                -1.114173          1.299624
   8         O                -0.659218          1.279059
   9         O                -0.565792          1.840724
  10         V                -0.396628          1.105634
  11         V                -0.379300          1.047165
  12         V                -0.283913          1.553802
  13         V                 0.018043          2.103504
  14         V                 0.030954          2.135418
  15         V                 0.037829          2.046687
  16         V                 0.159049          1.424129
  17         V                 0.592383          2.427448
  18         V                 0.629971          2.304240
  19         V                 0.702755          2.346750
 Total kinetic energy from orbitals= 3.429565319628D+02
                          Isotropic Fermi Contact Couplings
        Atom                 a.u.       MegaHertz       Gauss      10(-4) cm-1
     1  P(31)              1.01739     921.29504     328.74097     307.31094
     2  H(1)               0.00842      18.81166       6.71247       6.27490
     3  H(1)               0.12317     275.28749      98.22942      91.82602
     4  H(1)               0.12317     275.28749      98.22942      91.82602
 --------------------------------------------------------
       Center         ----  Spin Dipole Couplings  ----
                      3XX-RR        3YY-RR        3ZZ-RR
 --------------------------------------------------------
     1   Atom       -2.114878      1.507678      0.607199
     2   Atom        0.042272     -0.016081     -0.026191
     3   Atom       -0.017089      0.012420      0.004670
     4   Atom       -0.017089      0.012420      0.004670
 --------------------------------------------------------
                        XY            XZ            YZ
 --------------------------------------------------------
     1   Atom        0.080677      0.000000      0.000000
     2   Atom        0.030823      0.000000      0.000000
     3   Atom       -0.041448      0.044361     -0.046016
     4   Atom       -0.041448     -0.044361      0.046016
 --------------------------------------------------------


 ---------------------------------------------------------------------------------
              Anisotropic Spin Dipole Couplings in Principal Axis System
 ---------------------------------------------------------------------------------

       Atom             a.u.   MegaHertz   Gauss  10(-4) cm-1        Axes

              Baa    -2.1167  -457.591  -163.280  -152.636  0.9998 -0.0223  0.0000
     1 P(31)  Bbb     0.6072   131.267    46.839    43.786  0.0000  0.0000  1.0000
              Bcc     1.5095   326.324   116.440   108.850  0.0223  0.9998  0.0000
 
              Baa    -0.0293   -15.658    -5.587    -5.223 -0.3953  0.9185  0.0000
     2 H(1)   Bbb    -0.0262   -13.974    -4.986    -4.661  0.0000  0.0000  1.0000
              Bcc     0.0555    29.632    10.573     9.884  0.9185  0.3953  0.0000
 
              Baa    -0.0526   -28.085   -10.021    -9.368  0.8415  0.1745 -0.5113
     3 H(1)   Bbb    -0.0366   -19.531    -6.969    -6.515  0.2158  0.7590  0.6142
              Bcc     0.0892    47.615    16.990    15.883 -0.4953  0.6272 -0.6011
 
              Baa    -0.0526   -28.085   -10.021    -9.368  0.8415  0.1745  0.5113
     4 H(1)   Bbb    -0.0366   -19.531    -6.969    -6.515  0.2158  0.7590 -0.6142
              Bcc     0.0892    47.615    16.990    15.883 -0.4953  0.6272  0.6011
 

 ---------------------------------------------------------------------------------

 1|1|UNPC-DESKTOP-RA5CP68|SP|ROHF|3-21G|H3P1(2+,3)|FELIPE|16-Nov-2023|0
 ||# rohf/3-21g pop=full||PH3-CHARGE2-ROHF-MULT3||2,3|P,0,0.,0.,0.|H,0,
 0.,-1.1932,-0.7717|H,0,1.0333,0.5966,-0.7717|H,0,-1.0333,0.5966,-0.771
 7||Version=IA32W-G09RevB.01|State=3-A"|HF=-339.5717694|RMSD=9.658e-009
 |Dipole=0.,0.3296899,-0.6564456|Quadrupole=1.3917624,-0.7472853,-0.644
 4771,0.,0.,-0.4146969|PG=CS [SG(H1P1),X(H2)]||@


 The chemist is a guest at the physicist's table and
 frequently dines well.
                   -- Richard Bersohn
 Job cpu time:  0 days  0 hours  0 minutes  2.0 seconds.
 File lengths (MBytes):  RWF=      5 Int=      0 D2E=      0 Chk=      1 Scr=      1
 Normal termination of Gaussian 09 at Thu Nov 16 17:14:59 2023.
