 Entering Link 1 = C:\G09W\l1.exe PID=     15468.
  
 Copyright (c) 1988,1990,1992,1993,1995,1998,2003,2009,2010,
            Gaussian, Inc.  All Rights Reserved.
  
 This is part of the Gaussian(R) 09 program.  It is based on
 the Gaussian(R) 03 system (copyright 2003, Gaussian, Inc.),
 the Gaussian(R) 98 system (copyright 1998, Gaussian, Inc.),
 the Gaussian(R) 94 system (copyright 1995, Gaussian, Inc.),
 the Gaussian 92(TM) system (copyright 1992, Gaussian, Inc.),
 the Gaussian 90(TM) system (copyright 1990, Gaussian, Inc.),
 the Gaussian 88(TM) system (copyright 1988, Gaussian, Inc.),
 the Gaussian 86(TM) system (copyright 1986, Carnegie Mellon
 University), and the Gaussian 82(TM) system (copyright 1983,
 Carnegie Mellon University). Gaussian is a federally registered
 trademark of Gaussian, Inc.
  
 This software contains proprietary and confidential information,
 including trade secrets, belonging to Gaussian, Inc.
  
 This software is provided under written license and may be
 used, copied, transmitted, or stored only in accord with that
 written license.
  
 The following legend is applicable only to US Government
 contracts under FAR:
  
                    RESTRICTED RIGHTS LEGEND
  
 Use, reproduction and disclosure by the US Government is
 subject to restrictions as set forth in subparagraphs (a)
 and (c) of the Commercial Computer Software - Restricted
 Rights clause in FAR 52.227-19.
  
 Gaussian, Inc.
 340 Quinnipiac St., Bldg. 40, Wallingford CT 06492
  
  
 ---------------------------------------------------------------
 Warning -- This program may not be used in any manner that
 competes with the business of Gaussian, Inc. or will provide
 assistance to any competitor of Gaussian, Inc.  The licensee
 of this program is prohibited from giving any competitor of
 Gaussian, Inc. access to this program.  By using this program,
 the user acknowledges that Gaussian, Inc. is engaged in the
 business of creating and licensing software in the field of
 computational chemistry and represents and warrants to the
 licensee that it is not a competitor of Gaussian, Inc. and that
 it will not use this program in any manner prohibited above.
 ---------------------------------------------------------------
  

 Cite this work as:
 Gaussian 09, Revision B.01,
 M. J. Frisch, G. W. Trucks, H. B. Schlegel, G. E. Scuseria, 
 M. A. Robb, J. R. Cheeseman, G. Scalmani, V. Barone, B. Mennucci, 
 G. A. Petersson, H. Nakatsuji, M. Caricato, X. Li, H. P. Hratchian, 
 A. F. Izmaylov, J. Bloino, G. Zheng, J. L. Sonnenberg, M. Hada, 
 M. Ehara, K. Toyota, R. Fukuda, J. Hasegawa, M. Ishida, T. Nakajima, 
 Y. Honda, O. Kitao, H. Nakai, T. Vreven, J. A. Montgomery, Jr., 
 J. E. Peralta, F. Ogliaro, M. Bearpark, J. J. Heyd, E. Brothers, 
 K. N. Kudin, V. N. Staroverov, T. Keith, R. Kobayashi, J. Normand, 
 K. Raghavachari, A. Rendell, J. C. Burant, S. S. Iyengar, J. Tomasi, 
 M. Cossi, N. Rega, J. M. Millam, M. Klene, J. E. Knox, J. B. Cross, 
 V. Bakken, C. Adamo, J. Jaramillo, R. Gomperts, R. E. Stratmann, 
 O. Yazyev, A. J. Austin, R. Cammi, C. Pomelli, J. W. Ochterski, 
 R. L. Martin, K. Morokuma, V. G. Zakrzewski, G. A. Voth, 
 P. Salvador, J. J. Dannenberg, S. Dapprich, A. D. Daniels, 
 O. Farkas, J. B. Foresman, J. V. Ortiz, J. Cioslowski, 
 and D. J. Fox, Gaussian, Inc., Wallingford CT, 2010.
 
 ******************************************
 Gaussian 09:  IA32W-G09RevB.01 12-Aug-2010
                07-Nov-2023 
 ******************************************
 %chk=PH3-CHARGE1-HF-MULT4.chk
 %mem=6MW
 %nproc=1
 Will use up to    1 processors via shared memory.
 -------------------
 # hf/3-21g pop=full
 -------------------
 1/38=1/1;
 2/12=2,17=6,18=5,40=1/2;
 3/5=5,11=9,16=1,25=1,30=1/1,2,3;
 4//1;
 5/5=2,38=5/2;
 6/7=3,28=1/1;
 99/5=1,9=1/99;
 --------------------
 PH3-CHARGE1-HF-MULT4
 --------------------
 Symbolic Z-matrix:
 Charge =  1 Multiplicity = 4
 P1                    0.        0.        0. 
 H2                    0.       -1.1932   -0.7717 
 H3                    1.0333    0.5966   -0.7717 
 H4                   -1.0333    0.5966   -0.7717 
 
                          Input orientation:                          
 ---------------------------------------------------------------------
 Center     Atomic      Atomic             Coordinates (Angstroms)
 Number     Number       Type             X           Y           Z
 ---------------------------------------------------------------------
      1         15           0        0.000000    0.000000    0.000000
      2          1           0        0.000000   -1.193200   -0.771700
      3          1           0        1.033300    0.596600   -0.771700
      4          1           0       -1.033300    0.596600   -0.771700
 ---------------------------------------------------------------------
                    Distance matrix (angstroms):
                    1          2          3          4
     1  P    0.000000
     2  H    1.421002   0.000000
     3  H    1.420972   2.066662   0.000000
     4  H    1.420972   2.066662   2.066600   0.000000
 Stoichiometry    H3P(1+,4)
 Framework group  CS[SG(HP),X(H2)]
 Deg. of freedom     4
 Full point group                 CS      NOp   2
 Largest Abelian subgroup         CS      NOp   2
 Largest concise Abelian subgroup CS      NOp   2
                         Standard orientation:                         
 ---------------------------------------------------------------------
 Center     Atomic      Atomic             Coordinates (Angstroms)
 Number     Number       Type             X           Y           Z
 ---------------------------------------------------------------------
      1         15           0        0.000000    0.128617    0.000000
      2          1           0       -1.193200   -0.643083    0.000000
      3          1           0        0.596600   -0.643083    1.033300
      4          1           0        0.596600   -0.643083   -1.033300
 ---------------------------------------------------------------------
 Rotational constants (GHZ):    133.2559896    133.2499140    117.4090990
 Standard basis: 3-21G (6D, 7F)
 There are    14 symmetry adapted basis functions of A'  symmetry.
 There are     5 symmetry adapted basis functions of A"  symmetry.
 Integral buffers will be    262144 words long.
 Raffenetti 2 integral format.
 Two-electron integral symmetry is turned on.
    19 basis functions,    36 primitive gaussians,    19 cartesian basis functions
    10 alpha electrons        7 beta electrons
       nuclear repulsion energy        17.5262806456 Hartrees.
 NAtoms=    4 NActive=    4 NUniq=    3 SFac= 1.78D+00 NAtFMM=   50 NAOKFM=F Big=F
 One-electron integrals computed using PRISM.
 NBasis=    19 RedAO= T  NBF=    14     5
 NBsUse=    19 1.00D-06 NBFU=    14     5
 Harris functional with IExCor=  205 diagonalized for initial guess.
 ExpMin= 1.23D-01 ExpMax= 1.05D+03 ExpMxC= 1.05D+03 IAcc=1 IRadAn=         1 AccDes= 0.00D+00
 HarFok:  IExCor=  205 AccDes= 0.00D+00 IRadAn=         1 IDoV= 1
 ScaDFX=  1.000000  1.000000  1.000000  1.000000
 FoFCou: FMM=F IPFlag=           0 FMFlag=      100000 FMFlg1=           0
         NFxFlg=           0 DoJE=T BraDBF=F KetDBF=T FulRan=T
         Omega=  0.000000  0.000000  1.000000  0.000000  0.000000 ICntrl=     500 IOpCl=  0
         NMat0=    1 NMatS0=    1 NMatT0=    0 NMatD0=    1 NMtDS0=    0 NMtDT0=    0
         I1Cent=           4 NGrid=           0.
 Petite list used in FoFCou.
 Initial guess orbital symmetries:
 Alpha Orbitals:
       Occupied  (A') (A') (A") (A') (A') (A') (A') (A") (A') (A")
       Virtual   (A') (A') (A") (A') (A') (A') (A') (A") (A')
 Beta  Orbitals:
       Occupied  (A') (A') (A") (A') (A') (A') (A')
       Virtual   (A") (A') (A") (A') (A') (A") (A') (A') (A') (A')
                 (A") (A')
 The electronic state of the initial guess is 4-A'.
 Initial guess <Sx>= 0.0000 <Sy>= 0.0000 <Sz>= 1.5000 <S**2>= 3.7500 S= 1.5000
 Requested convergence on RMS density matrix=1.00D-08 within 128 cycles.
 Requested convergence on MAX density matrix=1.00D-06.
 Requested convergence on             energy=1.00D-06.
 No special actions if energy rises.
 Keep R1 and R2 ints in memory in canonical form, NReq=856044.
 SCF Done:  E(UHF) =  -340.033181358     A.U. after   13 cycles
             Convg  =    0.4205D-08             -V/T =  1.9987
 <Sx>= 0.0000 <Sy>= 0.0000 <Sz>= 1.5000 <S**2>= 3.7952 S= 1.5113
 <L.S>= 0.000000000000E+00
 Annihilation of the first spin contaminant:
 S**2 before annihilation     3.7952,   after     3.7504

 **********************************************************************

            Population analysis using the SCF density.

 **********************************************************************

 Orbital symmetries:
 Alpha Orbitals:
       Occupied  (A') (A') (A") (A') (A') (A') (A") (A') (A') (A")
       Virtual   (A') (A') (A") (A') (A') (A') (A') (A") (A')
 Beta  Orbitals:
       Occupied  (A') (A') (A') (A') (A") (A') (A')
       Virtual   (A") (A') (A') (A") (A') (A') (A") (A') (A') (A')
                 (A') (A")
 The electronic state is 4-A'.
 Alpha  occ. eigenvalues --  -79.77939  -7.85615  -5.75250  -5.74532  -5.73326
 Alpha  occ. eigenvalues --   -1.29050  -0.97705  -0.89204  -0.81187  -0.47016
 Alpha virt. eigenvalues --   -0.14413  -0.04285   0.25857   0.27963   0.29147
 Alpha virt. eigenvalues --    0.41340   0.84317   0.87007   0.97058
  Beta  occ. eigenvalues --  -79.76384  -7.83599  -5.72541  -5.71353  -5.70755
  Beta  occ. eigenvalues --   -1.10736  -0.79822
  Beta virt. eigenvalues --   -0.40709  -0.29875  -0.06699  -0.00564   0.03528
  Beta virt. eigenvalues --    0.31455   0.35266   0.37044   0.46617   0.94723
  Beta virt. eigenvalues --    0.99861   1.02047
     Alpha Molecular Orbital Coefficients:
                           1         2         3         4         5
                           O         O         O         O         O
     Eigenvalues --   -79.77939  -7.85615  -5.75250  -5.74532  -5.73326
   1 1   P  1S          0.98702  -0.29570   0.00000  -0.00036  -0.00004
   2        2S          0.04874   0.99728   0.00000   0.00125   0.00015
   3        2PX         0.00000  -0.00037   0.00000   0.04116   0.97222
   4        2PY        -0.00009   0.00049   0.00000   0.97232  -0.04076
   5        2PZ         0.00000   0.00000   0.97349   0.00000   0.00000
   6        3S         -0.01550   0.13007   0.00000  -0.00666   0.00090
   7        3PX         0.00000   0.00025   0.00000   0.00307   0.08715
   8        3PY         0.00034  -0.00404   0.00000   0.08709  -0.00430
   9        3PZ         0.00000   0.00000   0.08591   0.00000   0.00000
  10        4S          0.01066  -0.08568   0.00000   0.01671  -0.00145
  11        4PX         0.00000  -0.00027   0.00000  -0.00105  -0.02910
  12        4PY        -0.00211   0.02150   0.00000  -0.03219   0.00176
  13        4PZ         0.00000   0.00000  -0.02841   0.00000   0.00000
  14 2   H  1S          0.00086  -0.00452   0.00000   0.00381   0.00559
  15        2S         -0.00234   0.02116   0.00000  -0.00909  -0.00763
  16 3   H  1S          0.00086  -0.00462  -0.00474   0.00340  -0.00300
  17        2S         -0.00234   0.02132   0.00694  -0.00856   0.00466
  18 4   H  1S          0.00086  -0.00462   0.00474   0.00340  -0.00300
  19        2S         -0.00234   0.02132  -0.00694  -0.00856   0.00466
                           6         7         8         9        10
                           O         O         O         O         O
     Eigenvalues --    -1.29050  -0.97705  -0.89204  -0.81187  -0.47016
   1 1   P  1S          0.06652   0.00000  -0.02124   0.02305   0.00000
   2        2S         -0.35545   0.00000   0.11795  -0.12481   0.00000
   3        2PX        -0.00492   0.00000  -0.17658  -0.10989   0.00000
   4        2PY         0.03895   0.00000   0.09355  -0.21633   0.00000
   5        2PZ         0.00000  -0.20450   0.00000   0.00000  -0.19586
   6        3S          0.44943   0.00000  -0.15512   0.20051   0.00000
   7        3PX         0.00645   0.00000   0.37144   0.24009   0.00000
   8        3PY        -0.06612   0.00000  -0.19740   0.47266   0.00000
   9        3PZ         0.00000   0.43918   0.00000   0.00000   0.47113
  10        4S          0.45310   0.00000  -0.31233   0.22459   0.00000
  11        4PX        -0.01382   0.00000   0.14388   0.11956   0.00000
  12        4PY        -0.06374   0.00000  -0.07740   0.32846   0.00000
  13        4PZ         0.00000   0.15141   0.00000   0.00000   0.94797
  14 2   H  1S          0.09721   0.00000  -0.16822  -0.18644   0.00000
  15        2S         -0.01362   0.00000  -0.15907  -0.19024   0.00000
  16 3   H  1S          0.15629   0.25494   0.19767  -0.04158  -0.20617
  17        2S          0.04623   0.26257   0.26365  -0.02664  -0.84453
  18 4   H  1S          0.15629  -0.25494   0.19767  -0.04158   0.20617
  19        2S          0.04623  -0.26257   0.26365  -0.02664   0.84453
                          11        12        13        14        15
                           V         V         V         V         V
     Eigenvalues --    -0.14413  -0.04285   0.25857   0.27963   0.29147
   1 1   P  1S          0.01380   0.04457   0.00000   0.01938   0.00144
   2        2S         -0.08079  -0.25130   0.00000  -0.07387  -0.00532
   3        2PX        -0.15542   0.01963   0.00000   0.01070   0.32494
   4        2PY         0.05779   0.12198   0.00000  -0.31123   0.01142
   5        2PZ         0.00000   0.00000   0.30880   0.00000   0.00000
   6        3S          0.09556   0.43062   0.00000   0.52347   0.04075
   7        3PX         0.33373  -0.02915   0.00000  -0.03869  -1.23882
   8        3PY        -0.13560  -0.29633   0.00000   1.18412  -0.04629
   9        3PZ         0.00000   0.00000  -1.20550   0.00000   0.00000
  10        4S          0.48936   1.43495   0.00000  -0.49803  -0.04933
  11        4PX         1.05530  -0.35381   0.00000   0.04537   1.31081
  12        4PY        -0.35589  -1.06381   0.00000  -1.18321   0.05656
  13        4PZ         0.00000   0.00000   1.41612   0.00000   0.00000
  14 2   H  1S          0.14031  -0.13165   0.00000  -0.02400   0.11724
  15        2S          0.71622  -1.42724   0.00000   0.01284   0.07250
  16 3   H  1S         -0.12326  -0.04739  -0.10351  -0.03891  -0.06393
  17        2S         -0.82292  -0.86676  -0.15080  -0.00344  -0.02354
  18 4   H  1S         -0.12326  -0.04739   0.10351  -0.03891  -0.06393
  19        2S         -0.82292  -0.86676   0.15080  -0.00344  -0.02354
                          16        17        18        19
                           V         V         V         V
     Eigenvalues --     0.41340   0.84317   0.87007   0.97058
   1 1   P  1S         -0.04475  -0.02620   0.00000   0.01093
   2        2S          0.07049   0.07440   0.00000  -0.03504
   3        2PX         0.00178   0.05611   0.00000   0.11037
   4        2PY        -0.04917  -0.10981   0.00000   0.04527
   5        2PZ         0.00000   0.00000  -0.11192   0.00000
   6        3S         -2.07520  -0.86945   0.00000   0.32923
   7        3PX        -0.01059  -0.16174   0.00000  -0.31811
   8        3PY         0.30366   0.34386   0.00000  -0.13923
   9        3PZ         0.00000   0.00000   0.32199   0.00000
  10        4S          4.08727   2.48478   0.00000  -0.95130
  11        4PX        -0.02712   0.34993   0.00000   0.68901
  12        4PY        -1.67841  -1.11693   0.00000   0.42800
  13        4PZ         0.00000   0.00000  -0.81560   0.00000
  14 2   H  1S         -0.19612   0.20845   0.00000  -1.29890
  15        2S         -1.24641  -0.71234   0.00000   1.86336
  16 3   H  1S         -0.23798   0.86416  -0.92134   0.18486
  17        2S         -1.11967  -1.67470   1.33194  -0.10969
  18 4   H  1S         -0.23798   0.86416   0.92134   0.18486
  19        2S         -1.11967  -1.67470  -1.33194  -0.10969
     Beta Molecular Orbital Coefficients:
                           1         2         3         4         5
                           O         O         O         O         O
     Eigenvalues --   -79.76384  -7.83599  -5.72541  -5.71353  -5.70755
   1 1   P  1S          0.98705  -0.29572   0.00136  -0.00294   0.00000
   2        2S          0.04862   0.99786  -0.00458   0.00990   0.00000
   3        2PX         0.00000   0.00288   0.96140   0.15359   0.00000
   4        2PY        -0.00011  -0.00906  -0.15327   0.96067   0.00000
   5        2PZ         0.00000   0.00000   0.00000   0.00000   0.97272
   6        3S         -0.01541   0.12950   0.00009  -0.00380   0.00000
   7        3PX         0.00000   0.00027   0.08483   0.01325   0.00000
   8        3PY         0.00035  -0.00418  -0.01417   0.08716   0.00000
   9        3PZ         0.00000   0.00000   0.00000   0.00000   0.08856
  10        4S          0.01063  -0.08716  -0.00176   0.01438   0.00000
  11        4PX         0.00000   0.00007  -0.02913  -0.00444   0.00000
  12        4PY        -0.00211   0.02143   0.00517  -0.03260   0.00000
  13        4PZ         0.00000   0.00000   0.00000   0.00000  -0.03087
  14 2   H  1S          0.00085  -0.00449   0.00498   0.00429   0.00000
  15        2S         -0.00234   0.02163  -0.00721  -0.00959   0.00000
  16 3   H  1S          0.00086  -0.00483  -0.00351   0.00319  -0.00516
  17        2S         -0.00233   0.02144   0.00544  -0.00777   0.00782
  18 4   H  1S          0.00086  -0.00483  -0.00351   0.00319   0.00516
  19        2S         -0.00233   0.02144   0.00544  -0.00777  -0.00782
                           6         7         8         9        10
                           O         O         V         V         V
     Eigenvalues --    -1.10736  -0.79822  -0.40709  -0.29875  -0.06699
   1 1   P  1S          0.06406   0.01176   0.00000   0.03064  -0.01275
   2        2S         -0.34506  -0.06503   0.00000  -0.17018   0.07220
   3        2PX        -0.00032  -0.20919   0.00000   0.02008  -0.13693
   4        2PY         0.08873  -0.00612   0.00000  -0.19130  -0.02966
   5        2PZ         0.00000   0.00000  -0.19338   0.00000   0.00000
   6        3S          0.42474   0.08595   0.00000   0.19318  -0.10121
   7        3PX         0.00925   0.44497   0.00000  -0.03795   0.27447
   8        3PY        -0.19333   0.00494   0.00000   0.34576   0.07550
   9        3PZ         0.00000   0.00000   0.37358   0.00000   0.00000
  10        4S          0.48480   0.16513   0.00000   0.35722  -0.33393
  11        4PX         0.03272   0.20242   0.00000  -0.02262   1.14677
  12        4PY        -0.12312  -0.01896   0.00000   0.55903   0.20485
  13        4PZ         0.00000   0.00000   0.28206   0.00000   0.00000
  14 2   H  1S          0.16534  -0.26015   0.00000  -0.04617   0.17722
  15        2S          0.08090  -0.35926   0.00000  -0.01338   1.31711
  16 3   H  1S          0.08934   0.09568   0.17593  -0.07380  -0.06451
  17        2S         -0.03001   0.08425   0.28008  -0.08835  -0.34662
  18 4   H  1S          0.08934   0.09568  -0.17593  -0.07380  -0.06451
  19        2S         -0.03001   0.08425  -0.28008  -0.08835  -0.34662
                          11        12        13        14        15
                           V         V         V         V         V
     Eigenvalues --    -0.00564   0.03528   0.31455   0.35266   0.37044
   1 1   P  1S          0.00000   0.04437  -0.00231   0.00000  -0.01453
   2        2S          0.00000  -0.24572  -0.00012   0.00000   0.09226
   3        2PX         0.00000  -0.01822   0.32820   0.00000  -0.02085
   4        2PY         0.00000   0.10589   0.02175   0.00000   0.34358
   5        2PZ        -0.11453   0.00000   0.00000  -0.34981   0.00000
   6        3S          0.00000   0.48793  -0.14499   0.00000  -0.03231
   7        3PX         0.00000   0.04681  -1.24419   0.00000   0.07431
   8        3PY         0.00000  -0.26731  -0.07233   0.00000  -1.28105
   9        3PZ         0.19633   0.00000   0.00000   1.28512   0.00000
  10        4S          0.00000   1.38194   0.33285   0.00000  -0.64402
  11        4PX         0.00000   0.18578   1.27369   0.00000  -0.06564
  12        4PY         0.00000  -1.03964  -0.05039   0.00000   1.52436
  13        4PZ         1.24519   0.00000   0.00000  -1.18826   0.00000
  14 2   H  1S          0.00000  -0.01270   0.12377   0.00000   0.08441
  15        2S          0.00000  -0.84647  -0.07640   0.00000   0.32338
  16 3   H  1S         -0.12750  -0.05995  -0.06348   0.12466   0.08957
  17        2S         -1.02211  -1.22050  -0.12605  -0.02333   0.32956
  18 4   H  1S          0.12750  -0.05995  -0.06348  -0.12466   0.08957
  19        2S          1.02211  -1.22050  -0.12605   0.02333   0.32956
                          16        17        18        19
                           V         V         V         V
     Eigenvalues --     0.46617   0.94723   0.99861   1.02047
   1 1   P  1S         -0.04967  -0.02387   0.01111   0.00000
   2        2S          0.09055   0.07516  -0.03543   0.00000
   3        2PX        -0.02109  -0.06462  -0.10886   0.00000
   4        2PY         0.03109  -0.10294   0.05218   0.00000
   5        2PZ         0.00000   0.00000   0.00000  -0.12917
   6        3S         -2.18144  -0.73304   0.34051   0.00000
   7        3PX         0.08133   0.18792   0.31502   0.00000
   8        3PY         0.00633   0.31748  -0.16006   0.00000
   9        3PZ         0.00000   0.00000   0.00000   0.37636
  10        4S          4.28855   2.08592  -1.00379   0.00000
  11        4PX        -0.05795  -0.37796  -0.65363   0.00000
  12        4PY        -1.47089  -0.93815   0.45443   0.00000
  13        4PZ         0.00000   0.00000   0.00000  -0.74164
  14 2   H  1S         -0.19392   1.15372   0.61081   0.00000
  15        2S         -1.21812  -1.87831  -0.66392   0.00000
  16 3   H  1S         -0.15590   0.39685  -0.83765  -0.95096
  17        2S         -1.29178  -0.83089   1.20937   1.20634
  18 4   H  1S         -0.15590   0.39685  -0.83765   0.95096
  19        2S         -1.29178  -0.83089   1.20937  -1.20634
     Alpha Density Matrix:
                           1         2         3         4         5
   1 1   P  1S          1.06705
   2        2S         -0.27582   1.15278
   3        2PX         0.00094  -0.00554   0.99018
   4        2PY        -0.00497   0.02588   0.00746   1.00412
   5        2PZ         0.00000   0.00000   0.00000   0.00000   1.02787
   6        3S         -0.01595  -0.07412   0.00370  -0.04683   0.00000
   7        3PX        -0.00200   0.01182  -0.00715  -0.01750   0.00000
   8        3PY         0.01218  -0.06268  -0.01735  -0.03844   0.00000
   9        3PZ         0.00000   0.00000   0.00000   0.00000  -0.09845
  10        4S          0.07780  -0.31083   0.02755  -0.04389   0.00000
  11        4PX        -0.00114   0.00668  -0.06681  -0.01278   0.00000
  12        4PY        -0.00345  -0.00617  -0.02174  -0.11214   0.00000
  13        4PZ         0.00000   0.00000   0.00000   0.00000  -0.24430
  14 2   H  1S          0.00792  -0.03558   0.05531   0.03186   0.00000
  15        2S         -0.01047   0.03080   0.04126   0.01723   0.00000
  16 3   H  1S          0.00745  -0.03161  -0.03388   0.03700  -0.01637
  17        2S         -0.01175   0.03912  -0.03968   0.02372   0.11847
  18 4   H  1S          0.00745  -0.03161  -0.03388   0.03700   0.01637
  19        2S         -0.01175   0.03912  -0.03968   0.02372  -0.11847
                           6         7         8         9        10
   6        3S          0.28346
   7        3PX        -0.00649   0.20326
   8        3PY         0.09456   0.03962   0.27437
   9        3PZ         0.00000   0.00000   0.00000   0.42222
  10        4S          0.28570  -0.05927   0.13966   0.00000   0.36103
  11        4PX        -0.00461   0.07952   0.02906   0.00000  -0.02430
  12        4PY         0.05226   0.04976   0.17185   0.00000   0.06665
  13        4PZ         0.00000   0.00000   0.00000   0.51068   0.00000
  14 2   H  1S          0.03178  -0.10612  -0.06102   0.00000   0.05516
  15        2S         -0.01675  -0.10553  -0.05846   0.00000  -0.00119
  16 3   H  1S          0.03060   0.06420  -0.06868   0.01442   0.00021
  17        2S         -0.02259   0.09222  -0.06854  -0.28197  -0.06938
  18 4   H  1S          0.03060   0.06420  -0.06868  -0.01442   0.00021
  19        2S         -0.02259   0.09222  -0.06854   0.28197  -0.06938
                          11        12        13        14        15
  11        4PX         0.03603
  12        4PY         0.02899   0.11944
  13        4PZ         0.00000   0.00000   0.92239
  14 2   H  1S         -0.04800  -0.05463   0.00000   0.07257
  15        2S         -0.04522  -0.04857   0.00000   0.06073   0.06227
  16 3   H  1S          0.02139  -0.03914  -0.15671  -0.01029  -0.02577
  17        2S          0.03398  -0.03136  -0.76103  -0.03499  -0.03700
  18 4   H  1S          0.02139  -0.03914   0.15671  -0.01029  -0.02577
  19        2S          0.03398  -0.03136   0.76103  -0.03499  -0.03700
                          16        17        18        19
  16 3   H  1S          0.17279
  17        2S          0.30133   0.85513
  18 4   H  1S         -0.04225  -0.18072   0.17279
  19        2S         -0.18072  -0.70930   0.30133   0.85513
     Beta Density Matrix:
                           1         2         3         4         5
   1 1   P  1S          1.06597
   2        2S         -0.27000   1.12151
   3        2PX        -0.00248   0.01370   0.99165
   4        2PY         0.00516  -0.02905   0.00142   0.95437
   5        2PZ         0.00000   0.00000   0.00000   0.00000   0.94619
   6        3S         -0.02528  -0.02372  -0.01824   0.03232   0.00000
   7        3PX         0.00582  -0.03211  -0.00950  -0.00217   0.00000
   8        3PY        -0.01102   0.06316  -0.00122   0.06876   0.00000
   9        3PZ         0.00000   0.00000   0.00000   0.00000   0.08614
  10        4S          0.06922  -0.26433  -0.03443   0.05688   0.00000
  11        4PX         0.00443  -0.02429  -0.07105   0.00186   0.00000
  12        4PY        -0.01642   0.06465   0.00403  -0.04311   0.00000
  13        4PZ         0.00000   0.00000   0.00000   0.00000  -0.03003
  14 2   H  1S          0.00970  -0.04455   0.05980   0.01966   0.00000
  15        2S         -0.00773   0.01686   0.06679   0.00107   0.00000
  16 3   H  1S          0.00911  -0.04178  -0.02294   0.01098  -0.00502
  17        2S         -0.00954   0.02606  -0.01351  -0.01167   0.00760
  18 4   H  1S          0.00911  -0.04178  -0.02294   0.01098   0.00502
  19        2S         -0.00954   0.02606  -0.01351  -0.01167  -0.00760
                           6         7         8         9        10
   6        3S          0.20481
   7        3PX         0.04217   0.20546
   8        3PY        -0.08257   0.00036   0.04522
   9        3PZ         0.00000   0.00000   0.00000   0.00784
  10        4S          0.20860   0.07798  -0.09126   0.00000   0.27021
  11        4PX         0.03132   0.08784  -0.00530   0.00000   0.04927
  12        4PY        -0.05099  -0.00956   0.02070   0.00000  -0.06519
  13        4PZ         0.00000   0.00000   0.00000  -0.00273   0.00000
  14 2   H  1S          0.04726  -0.11375  -0.03293   0.00000   0.03765
  15        2S          0.00635  -0.15984  -0.01824   0.00000  -0.02214
  16 3   H  1S          0.04552   0.04314  -0.01645  -0.00046   0.05959
  17        2S         -0.00266   0.03757   0.00537   0.00069  -0.00265
  18 4   H  1S          0.04552   0.04314  -0.01645   0.00046   0.05959
  19        2S         -0.00266   0.03757   0.00537  -0.00069  -0.00265
                          11        12        13        14        15
  11        4PX         0.04291
  12        4PY        -0.00787   0.01707
  13        4PZ         0.00000   0.00000   0.00095
  14 2   H  1S         -0.04741  -0.01564   0.00000   0.09508
  15        2S         -0.06982  -0.00240   0.00000   0.10666   0.13623
  16 3   H  1S          0.02238  -0.01304   0.00016  -0.01010  -0.02726
  17        2S          0.01595   0.00284  -0.00024  -0.02698  -0.03219
  18 4   H  1S          0.02238  -0.01304  -0.00016  -0.01010  -0.02726
  19        2S          0.01595   0.00284   0.00024  -0.02698  -0.03219
                          16        17        18        19
  16 3   H  1S          0.01721
  17        2S          0.00519   0.00861
  18 4   H  1S          0.01716   0.00527   0.01721
  19        2S          0.00527   0.00849   0.00519   0.00861
    Full Mulliken population analysis:
                           1         2         3         4         5
   1 1   P  1S          2.13302
   2        2S         -0.13711   2.27428
   3        2PX         0.00000   0.00000   1.98183
   4        2PY         0.00000   0.00000   0.00000   1.95849
   5        2PZ         0.00000   0.00000   0.00000   0.00000   1.97406
   6        3S         -0.00140  -0.03458   0.00000   0.00000   0.00000
   7        3PX         0.00000   0.00000  -0.00503   0.00000   0.00000
   8        3PY         0.00000   0.00000   0.00000   0.00917   0.00000
   9        3PZ         0.00000   0.00000   0.00000   0.00000  -0.00372
  10        4S          0.00483  -0.14667   0.00000   0.00000   0.00000
  11        4PX         0.00000   0.00000  -0.01020   0.00000   0.00000
  12        4PY         0.00000   0.00000   0.00000  -0.01148   0.00000
  13        4PZ         0.00000   0.00000   0.00000   0.00000  -0.02029
  14 2   H  1S          0.00001  -0.00057  -0.00096  -0.00028   0.00000
  15        2S         -0.00022   0.00461  -0.00349  -0.00038   0.00000
  16 3   H  1S          0.00001  -0.00052  -0.00024  -0.00026  -0.00015
  17        2S         -0.00025   0.00630  -0.00086  -0.00025   0.00352
  18 4   H  1S          0.00001  -0.00052  -0.00024  -0.00026  -0.00015
  19        2S         -0.00025   0.00630  -0.00086  -0.00025   0.00352
                           6         7         8         9        10
   6        3S          0.48827
   7        3PX         0.00000   0.40871
   8        3PY         0.00000   0.00000   0.31959
   9        3PZ         0.00000   0.00000   0.00000   0.43007
  10        4S          0.41224   0.00000   0.00000   0.00000   0.63124
  11        4PX         0.00000   0.10822   0.00000   0.00000   0.00000
  12        4PY         0.00000   0.00000   0.12451   0.00000   0.00000
  13        4PZ         0.00000   0.00000   0.00000   0.32844   0.00000
  14 2   H  1S          0.01162   0.05013   0.01385   0.00000   0.02236
  15        2S         -0.00413   0.08380   0.01566   0.00000  -0.01333
  16 3   H  1S          0.01119   0.01224   0.01255   0.00276   0.01441
  17        2S         -0.01003   0.02049   0.01290  -0.07692  -0.04115
  18 4   H  1S          0.01119   0.01224   0.01255   0.00276   0.01441
  19        2S         -0.01003   0.02049   0.01290  -0.07692  -0.04115
                          11        12        13        14        15
  11        4PX         0.07895
  12        4PY         0.00000   0.13652
  13        4PZ         0.00000   0.00000   0.92334
  14 2   H  1S          0.03179   0.01514   0.00000   0.16765
  15        2S          0.06217   0.01782   0.00000   0.10811   0.19850
  16 3   H  1S          0.00729   0.01124  -0.04517  -0.00003  -0.00342
  17        2S          0.01349   0.00997  -0.35631  -0.00400  -0.01711
  18 4   H  1S          0.00729   0.01124  -0.04517  -0.00003  -0.00342
  19        2S          0.01349   0.00997  -0.35631  -0.00400  -0.01711
                          16        17        18        19
  16 3   H  1S          0.19000
  17        2S          0.19798   0.86374
  18 4   H  1S         -0.00004  -0.01132   0.19000
  19        2S         -0.01132  -0.17334   0.19798   0.86374
     Gross orbital populations:
                         Total     Alpha     Beta      Spin
   1 1   P  1S          1.99865   0.99939   0.99926   0.00013
   2        2S          1.97152   0.98787   0.98365   0.00422
   3        2PX         1.95996   0.97972   0.98024  -0.00051
   4        2PY         1.95450   0.98228   0.97222   0.01007
   5        2PZ         1.95679   0.98642   0.97038   0.01604
   6        3S          0.87436   0.48407   0.39029   0.09378
   7        3PX         0.71129   0.35379   0.35750  -0.00370
   8        3PY         0.53369   0.44305   0.09064   0.35242
   9        3PZ         0.60646   0.57414   0.03233   0.54181
  10        4S          0.85719   0.45602   0.40117   0.05486
  11        4PX         0.31251   0.14844   0.16407  -0.01564
  12        4PY         0.32491   0.28980   0.03511   0.25469
  13        4PZ         0.42854   0.43171  -0.00317   0.43488
  14 2   H  1S          0.41081   0.18529   0.22552  -0.04023
  15        2S          0.42806   0.16037   0.26769  -0.10731
  16 3   H  1S          0.39852   0.34496   0.05356   0.29140
  17        2S          0.43686   0.42385   0.01301   0.41085
  18 4   H  1S          0.39852   0.34496   0.05356   0.29140
  19        2S          0.43686   0.42385   0.01301   0.41085
          Condensed to atoms (all electrons):
              1          2          3          4
     1  P   14.972226   0.305614  -0.393736  -0.393736
     2  H    0.305614   0.582380  -0.024563  -0.024563
     3  H   -0.393736  -0.024563   1.449704  -0.196022
     4  H   -0.393736  -0.024563  -0.196022   1.449704
 Mulliken atomic charges:
              1
     1  P    0.509633
     2  H    0.161133
     3  H    0.164617
     4  H    0.164617
 Sum of Mulliken atomic charges =   1.00000
 Mulliken charges with hydrogens summed into heavy atoms:
              1
     1  P    1.000000
 Sum of Mulliken charges with hydrogens summed into heavy atoms =   1.00000
          Atomic-Atomic Spin Densities.
              1          2          3          4
     1  P    2.689873   0.011475  -0.479151  -0.479151
     2  H    0.011475  -0.155795  -0.001611  -0.001611
     3  H   -0.479151  -0.001611   1.384646  -0.201636
     4  H   -0.479151  -0.001611  -0.201636   1.384646
 Mulliken atomic spin densities:
              1
     1  P    1.743046
     2  H   -0.147543
     3  H    0.702248
     4  H    0.702248
 Sum of Mulliken atomic spin densities =   3.00000
 Electronic spatial extent (au):  <R**2>=             48.5142
 Charge=              1.0000 electrons
 Dipole moment (field-independent basis, Debye):
    X=              0.2313    Y=             -0.7977    Z=              0.0000  Tot=              0.8306
 Quadrupole moment (field-independent basis, Debye-Ang):
   XX=            -12.5098   YY=            -12.6182   ZZ=            -12.4597
   XY=              0.4981   XZ=              0.0000   YZ=              0.0000
 Traceless Quadrupole moment (field-independent basis, Debye-Ang):
   XX=              0.0195   YY=             -0.0890   ZZ=              0.0695
   XY=              0.4981   XZ=              0.0000   YZ=              0.0000
 Octapole moment (field-independent basis, Debye-Ang**2):
  XXX=             -0.6371  YYY=              0.3867  ZZZ=              0.0000  XYY=             -0.7857
  XXY=             -0.1283  XXZ=              0.0000  XZZ=              0.7448  YZZ=             -0.8308
  YYZ=              0.0000  XYZ=              0.0000
 Hexadecapole moment (field-independent basis, Debye-Ang**3):
 XXXX=            -26.2914 YYYY=            -24.2073 ZZZZ=            -27.9041 XXXY=              1.6898
 XXXZ=              0.0000 YYYX=              1.0173 YYYZ=              0.0000 ZZZX=              0.0000
 ZZZY=              0.0000 XXYY=             -8.3266 XXZZ=            -10.0690 YYZZ=             -9.8586
 XXYZ=              0.0000 YYXZ=              0.0000 ZZXY=              0.8184
 N-N= 1.752628064564D+01 E-N=-1.246148073146D+03  KE= 5.087140033978D+02
 Symmetry A'   KE= 4.625617571552D+02
 Symmetry A"   KE= 4.615224624259D+01
 Orbital energies and kinetic energies (alpha):
                                 1                 2
   1         O               -79.779387        105.407638
   2         O                -7.856149         16.231270
   3         O                -5.752502         14.579951
   4         O                -5.745317         14.572350
   5         O                -5.733257         14.569359
   6         O                -1.290495          1.641258
   7         O                -0.977046          1.199404
   8         O                -0.892037          1.281393
   9         O                -0.811871          1.520778
  10         O                -0.470159          1.251290
  11         V                -0.144127          1.083679
  12         V                -0.042852          1.474536
  13         V                 0.258568          2.091925
  14         V                 0.279626          2.237916
  15         V                 0.291467          2.269706
  16         V                 0.413403          1.482793
  17         V                 0.843169          2.444942
  18         V                 0.870074          2.231311
  19         V                 0.970578          2.401541
 Orbital energies and kinetic energies (beta):
                                 1                 2
   1         O               -79.763837        105.415074
   2         O                -7.835986         16.240344
   3         O                -5.725409         14.581713
   4         O                -5.713533         14.565942
   5         O                -5.707549         14.560800
   6         O                -1.107361          1.649991
   7         O                -0.798216          1.215792
   8         V                -0.407089          1.026258
   9         V                -0.298749          1.219029
  10         V                -0.066992          0.927816
  11         V                -0.005641          0.751924
  12         V                 0.035281          1.366632
  13         V                 0.314554          2.317523
  14         V                 0.352660          2.562329
  15         V                 0.370444          2.579359
  16         V                 0.466167          1.571930
  17         V                 0.947230          2.521927
  18         V                 0.998615          2.446088
  19         V                 1.020470          2.452571
 Total kinetic energy from orbitals= 3.404843477304D+02
                          Isotropic Fermi Contact Couplings
        Atom                 a.u.       MegaHertz       Gauss      10(-4) cm-1
     1  P(31)              0.78124     471.63550     168.29127     157.32067
     2  H(1)              -0.03212     -47.85723     -17.07665     -15.96346
     3  H(1)               0.23857     355.45899     126.83660     118.56836
     4  H(1)               0.23857     355.45899     126.83660     118.56836
 --------------------------------------------------------
       Center         ----  Spin Dipole Couplings  ----
                      3XX-RR        3YY-RR        3ZZ-RR
 --------------------------------------------------------
     1   Atom       -2.630190      0.382207      2.247982
     2   Atom        0.039318     -0.015034     -0.024283
     3   Atom       -0.010944      0.020894     -0.009950
     4   Atom       -0.010944      0.020894     -0.009950
 --------------------------------------------------------
                        XY            XZ            YZ
 --------------------------------------------------------
     1   Atom        0.303537      0.000000      0.000000
     2   Atom        0.053918      0.000000      0.000000
     3   Atom       -0.052589      0.039780     -0.037243
     4   Atom       -0.052589     -0.039780      0.037243
 --------------------------------------------------------


 ---------------------------------------------------------------------------------
              Anisotropic Spin Dipole Couplings in Principal Axis System
 ---------------------------------------------------------------------------------

       Atom             a.u.   MegaHertz   Gauss  10(-4) cm-1        Axes

              Baa    -2.6605  -575.151  -205.228  -191.850  0.9951 -0.0993  0.0000
     1 P(31)  Bbb     0.4125    89.173    31.819    29.745  0.0993  0.9951  0.0000
              Bcc     2.2480   485.977   173.409   162.105  0.0000  0.0000  1.0000
 
              Baa    -0.0482   -25.737    -9.184    -8.585 -0.5244  0.8515  0.0000
     2 H(1)   Bbb    -0.0243   -12.956    -4.623    -4.322  0.0000  0.0000  1.0000
              Bcc     0.0725    38.694    13.807    12.907  0.8515  0.5244  0.0000
 
              Baa    -0.0548   -29.228   -10.429    -9.749  0.8259  0.3608 -0.4332
     3 H(1)   Bbb    -0.0344   -18.329    -6.540    -6.114  0.1241  0.6332  0.7640
              Bcc     0.0891    47.557    16.969    15.863 -0.5499  0.6848 -0.4782
 
              Baa    -0.0548   -29.228   -10.429    -9.749  0.8259  0.3608  0.4332
     4 H(1)   Bbb    -0.0344   -18.329    -6.540    -6.114 -0.1241 -0.6332  0.7640
              Bcc     0.0891    47.557    16.969    15.863 -0.5499  0.6848  0.4782
 

 ---------------------------------------------------------------------------------

 1|1|UNPC-DESKTOP-RA5CP68|SP|UHF|3-21G|H3P1(1+,4)|FELIPE|07-Nov-2023|0|
 |# hf/3-21g pop=full||PH3-CHARGE1-HF-MULT4||1,4|P,0,0.,0.,0.|H,0,0.,-1
 .1932,-0.7717|H,0,1.0333,0.5966,-0.7717|H,0,-1.0333,0.5966,-0.7717||Ve
 rsion=IA32W-G09RevB.01|State=4-A'|HF=-340.0331814|S2=3.795179|S2-1=0.|
 S2A=3.750364|RMSD=4.205e-009|Dipole=0.,0.0910191,-0.3138338|Quadrupole
 =0.0516667,0.0144693,-0.066136,0.,0.,0.3703561|PG=CS [SG(H1P1),X(H2)]|
 |@


 ERROR IS THE FORCE THAT WELDS MEN TOGETHER....
 TRUTH IS COMMUNICATED TO MEN ONLY BY DEEDS OF TRUTH.
           TOLSTOI,MY RELIGION
 Job cpu time:  0 days  0 hours  0 minutes  1.0 seconds.
 File lengths (MBytes):  RWF=      5 Int=      0 D2E=      0 Chk=      1 Scr=      1
 Normal termination of Gaussian 09 at Tue Nov 07 19:06:50 2023.
