 Entering Link 1 = C:\G09W\l1.exe PID=      1500.
  
 Copyright (c) 1988,1990,1992,1993,1995,1998,2003,2009,2010,
            Gaussian, Inc.  All Rights Reserved.
  
 This is part of the Gaussian(R) 09 program.  It is based on
 the Gaussian(R) 03 system (copyright 2003, Gaussian, Inc.),
 the Gaussian(R) 98 system (copyright 1998, Gaussian, Inc.),
 the Gaussian(R) 94 system (copyright 1995, Gaussian, Inc.),
 the Gaussian 92(TM) system (copyright 1992, Gaussian, Inc.),
 the Gaussian 90(TM) system (copyright 1990, Gaussian, Inc.),
 the Gaussian 88(TM) system (copyright 1988, Gaussian, Inc.),
 the Gaussian 86(TM) system (copyright 1986, Carnegie Mellon
 University), and the Gaussian 82(TM) system (copyright 1983,
 Carnegie Mellon University). Gaussian is a federally registered
 trademark of Gaussian, Inc.
  
 This software contains proprietary and confidential information,
 including trade secrets, belonging to Gaussian, Inc.
  
 This software is provided under written license and may be
 used, copied, transmitted, or stored only in accord with that
 written license.
  
 The following legend is applicable only to US Government
 contracts under FAR:
  
                    RESTRICTED RIGHTS LEGEND
  
 Use, reproduction and disclosure by the US Government is
 subject to restrictions as set forth in subparagraphs (a)
 and (c) of the Commercial Computer Software - Restricted
 Rights clause in FAR 52.227-19.
  
 Gaussian, Inc.
 340 Quinnipiac St., Bldg. 40, Wallingford CT 06492
  
  
 ---------------------------------------------------------------
 Warning -- This program may not be used in any manner that
 competes with the business of Gaussian, Inc. or will provide
 assistance to any competitor of Gaussian, Inc.  The licensee
 of this program is prohibited from giving any competitor of
 Gaussian, Inc. access to this program.  By using this program,
 the user acknowledges that Gaussian, Inc. is engaged in the
 business of creating and licensing software in the field of
 computational chemistry and represents and warrants to the
 licensee that it is not a competitor of Gaussian, Inc. and that
 it will not use this program in any manner prohibited above.
 ---------------------------------------------------------------
  

 Cite this work as:
 Gaussian 09, Revision B.01,
 M. J. Frisch, G. W. Trucks, H. B. Schlegel, G. E. Scuseria, 
 M. A. Robb, J. R. Cheeseman, G. Scalmani, V. Barone, B. Mennucci, 
 G. A. Petersson, H. Nakatsuji, M. Caricato, X. Li, H. P. Hratchian, 
 A. F. Izmaylov, J. Bloino, G. Zheng, J. L. Sonnenberg, M. Hada, 
 M. Ehara, K. Toyota, R. Fukuda, J. Hasegawa, M. Ishida, T. Nakajima, 
 Y. Honda, O. Kitao, H. Nakai, T. Vreven, J. A. Montgomery, Jr., 
 J. E. Peralta, F. Ogliaro, M. Bearpark, J. J. Heyd, E. Brothers, 
 K. N. Kudin, V. N. Staroverov, T. Keith, R. Kobayashi, J. Normand, 
 K. Raghavachari, A. Rendell, J. C. Burant, S. S. Iyengar, J. Tomasi, 
 M. Cossi, N. Rega, J. M. Millam, M. Klene, J. E. Knox, J. B. Cross, 
 V. Bakken, C. Adamo, J. Jaramillo, R. Gomperts, R. E. Stratmann, 
 O. Yazyev, A. J. Austin, R. Cammi, C. Pomelli, J. W. Ochterski, 
 R. L. Martin, K. Morokuma, V. G. Zakrzewski, G. A. Voth, 
 P. Salvador, J. J. Dannenberg, S. Dapprich, A. D. Daniels, 
 O. Farkas, J. B. Foresman, J. V. Ortiz, J. Cioslowski, 
 and D. J. Fox, Gaussian, Inc., Wallingford CT, 2010.
 
 ******************************************
 Gaussian 09:  IA32W-G09RevB.01 12-Aug-2010
                27-Nov-2023 
 ******************************************
 %chk=PH3-DIS-3-21g-cisd.chk
 %mem=6MW
 %nproc=1
 Will use up to    1 processors via shared memory.
 ----------------------------
 # scan rcisd/3-21g guess=mix
 ----------------------------
 1/38=1,60=1/1,8;
 2/12=2,17=6,18=5,29=3,40=1/2;
 3/5=5,11=1,16=1,25=1,30=1,116=1/1,2,3;
 4/13=-1/1;
 5/5=2,38=5/2;
 8/6=3,9=120000,10=1/1,4;
 9//13;
 6/7=2,8=2,9=2,10=2,18=1/1;
 1/60=1/8(1);
 99/9=1/99;
 2/29=3/2;
 3/5=5,11=1,16=1,25=1,30=1,116=1/1,2,3;
 4/5=5,16=3/1;
 5/5=2,38=5/2;
 8/6=3,9=120000,10=1/1,4;
 9//13;
 1/60=1/8(-6);
 99/9=1/99;
 ------------------
 PH3-DIS-3-21g-cisd
 ------------------
 Symbolic Z-matrix:
 Charge =  0 Multiplicity = 1
 P
 H                    1    B1
 H                    1    B1       2     93.3 
 H                    1    B1       3     93.3     2    -93.3     0
       Variables:
  B1                    2.5    Scan 17   -0.1    
 
 Scan the potential surface.
 Variable   Value     No. Steps Step-Size
 -------- ----------- --------- ---------
     1       2.500000      17     -0.1000
 A total of     18 points will be computed.
 ---------------------------------------------------------------------------------------------------
                            Z-MATRIX (ANGSTROMS AND DEGREES)
   CD    Cent   Atom    N1       Length/X        N2       Alpha/Y        N3        Beta/Z          J
 ---------------------------------------------------------------------------------------------------
      1      1  P 
      2      2  H        1   2.500000(     1)
      3      3  H        1   2.500000(     2)      2   93.300(     4)
      4      4  H        1   2.500000(     3)      3   93.300(     5)      2  -93.300(     6)      0
 ---------------------------------------------------------------------------------------------------
                         Z-Matrix orientation:                         
 ---------------------------------------------------------------------
 Center     Atomic      Atomic             Coordinates (Angstroms)
 Number     Number       Type             X           Y           Z
 ---------------------------------------------------------------------
      1         15           0        0.000000    0.000000    0.000000
      2          1           0        0.000000    0.000000    2.500000
      3          1           0        2.495855    0.000000   -0.143910
      4          1           0       -0.151942   -2.491716   -0.135149
 ---------------------------------------------------------------------
                    Distance matrix (angstroms):
                    1          2          3          4
     1  P    0.000000
     2  H    2.500000   0.000000
     3  H    2.500000   3.635870   0.000000
     4  H    2.500000   3.629841   3.635870   0.000000
 Stoichiometry    H3P
 Framework group  CS[SG(HP),X(H2)]
 Deg. of freedom     4
 Full point group                 CS      NOp   2
 Largest Abelian subgroup         CS      NOp   2
 Largest concise Abelian subgroup CS      NOp   2
                         Standard orientation:                         
 ---------------------------------------------------------------------
 Center     Atomic      Atomic             Coordinates (Angstroms)
 Number     Number       Type             X           Y           Z
 ---------------------------------------------------------------------
      1         15           0        0.000000    0.226590    0.000000
      2          1           0       -1.050163   -1.134740    1.814921
      3          1           0        2.100326   -1.129370    0.000000
      4          1           0       -1.050163   -1.134740   -1.814921
 ---------------------------------------------------------------------
 Rotational constants (GHZ):     43.0813558     42.9733106     37.9746071
 Standard basis: 3-21G (6D, 7F)
 There are    14 symmetry adapted basis functions of A'  symmetry.
 There are     5 symmetry adapted basis functions of A"  symmetry.
 Integral buffers will be    262144 words long.
 Raffenetti 1 integral format.
 Two-electron integral symmetry is turned on.
    19 basis functions,    36 primitive gaussians,    19 cartesian basis functions
     9 alpha electrons        9 beta electrons
       nuclear repulsion energy         9.9620619682 Hartrees.
 NAtoms=    4 NActive=    4 NUniq=    3 SFac= 1.78D+00 NAtFMM=   50 NAOKFM=F Big=F
 One-electron integrals computed using PRISM.
 NBasis=    19 RedAO= T  NBF=    14     5
 NBsUse=    19 1.00D-06 NBFU=    14     5
 Harris functional with IExCor=  205 diagonalized for initial guess.
 ExpMin= 1.23D-01 ExpMax= 1.05D+03 ExpMxC= 1.05D+03 IAcc=1 IRadAn=         1 AccDes= 0.00D+00
 HarFok:  IExCor=  205 AccDes= 0.00D+00 IRadAn=         1 IDoV= 1
 ScaDFX=  1.000000  1.000000  1.000000  1.000000
 FoFCou: FMM=F IPFlag=           0 FMFlag=      100000 FMFlg1=           0
         NFxFlg=           0 DoJE=T BraDBF=F KetDBF=T FulRan=T
         Omega=  0.000000  0.000000  1.000000  0.000000  0.000000 ICntrl=     500 IOpCl=  0
         NMat0=    1 NMatS0=    1 NMatT0=    0 NMatD0=    1 NMtDS0=    0 NMtDT0=    0
         I1Cent=           4 NGrid=           0.
 Petite list used in FoFCou.
 Mixing orbitals, IMix= 1 IMixAn=  0 NRI=1 NE=    9 Coef=  7.07106781D-01  7.07106781D-01
 Initial guess orbital symmetries:
       Occupied  (A') (A') (A") (A') (A') (A') (A') (A") (A')
       Virtual   (A') (A") (A') (A') (A") (A') (A') (A') (A") (A')
 The electronic state of the initial guess is 1-A'.
 Requested convergence on RMS density matrix=1.00D-08 within 128 cycles.
 Requested convergence on MAX density matrix=1.00D-06.
 Requested convergence on             energy=1.00D-06.
 No special actions if energy rises.
 Keep R1 ints in memory in canonical form, NReq=837892.
 An orbital has undefined symmetry, so N**3 symmetry is turned off.
 SCF Done:  E(RHF) =  -340.330071422     A.U. after   13 cycles
             Convg  =    0.8586D-08             -V/T =  2.0038
 ExpMin= 1.23D-01 ExpMax= 1.05D+03 ExpMxC= 1.05D+03 IAcc=1 IRadAn=         1 AccDes= 0.00D+00
 HarFok:  IExCor=  205 AccDes= 0.00D+00 IRadAn=         1 IDoV=-2
 ScaDFX=  1.000000  1.000000  1.000000  1.000000
 Range of M.O.s used for correlation:     6    19
 NBasis=    19 NAE=     9 NBE=     9 NFC=     5 NFV=     0
 NROrb=     14 NOA=     4 NOB=     4 NVA=    10 NVB=    10
 Semi-Direct transformation.
 ModeAB=           2 MOrb=             4 LenV=       6192523
 LASXX=         2131 LTotXX=        2131 LenRXX=        2131
 LTotAB=        2650 MaxLAS=       10640 LenRXY=       10640
 NonZer=       11648 LenScr=     1048064 LnRSAI=           0
 LnScr1=           0 LExtra=           0 Total=      1060835
 MaxDsk=          -1 SrtSym=           F ITran=            3
 JobTyp=0 Pass  1:  I=   1 to   4.
 (rs|ai) integrals will be sorted in core.
 SymMOI:  orbitals are not symmetric.
 Spin components of T(2) and E(2):
     alpha-alpha T2 =       0.5916341939D-02 E2=     -0.6505982527D-02
     alpha-beta  T2 =       0.1503962195D+00 E2=     -0.1278831052D+00
     beta-beta   T2 =       0.5916341939D-02 E2=     -0.6505982527D-02
 ANorm=    0.1078067207D+01
 E2 =    -0.1408950703D+00 EUMP2 =    -0.34047096649209D+03
 R2 and R3 integrals will be kept in memory, NReq=      836290.
 Iterations=  50 Convergence= 0.100D-06
 Iteration Nr.   1
 **********************
 DD1Dir will call FoFMem   1 times, MxPair=        20
 NAB=    10 NAA=     0 NBB=     0.
 E3=       -0.38714283D-01        EUMP3=      -0.34050968078D+03
 DE(CI)=     -0.15387043     E(CI)=       -340.48394186    
 NORM(A)=   0.11099333D+01
 Iteration Nr.   2
 **********************
 DD1Dir will call FoFMem   1 times, MxPair=        20
 NAB=    10 NAA=     0 NBB=     0.
 DE(CI)=     -0.17166505     E(CI)=       -340.50173647    
 NORM(A)=   0.11611360D+01
 Iteration Nr.   3
 **********************
 DD1Dir will call FoFMem   1 times, MxPair=        20
 NAB=    10 NAA=     0 NBB=     0.
 DE(CI)=     -0.18232231     E(CI)=       -340.51239374    
 NORM(A)=   0.11654989D+01
 Iteration Nr.   4
 **********************
 DD1Dir will call FoFMem   1 times, MxPair=        20
 NAB=    10 NAA=     0 NBB=     0.
 DE(CI)=     -0.18134913     E(CI)=       -340.51142055    
 NORM(A)=   0.11584669D+01
 Iteration Nr.   5
 **********************
 DD1Dir will call FoFMem   1 times, MxPair=        20
 NAB=    10 NAA=     0 NBB=     0.
 DE(CI)=     -0.17962959     E(CI)=       -340.50970101    
 NORM(A)=   0.11660702D+01
 Iteration Nr.   6
 **********************
 DD1Dir will call FoFMem   1 times, MxPair=        20
 NAB=    10 NAA=     0 NBB=     0.
 DE(CI)=     -0.18153483     E(CI)=       -340.51160625    
 NORM(A)=   0.11696639D+01
 Iteration Nr.   7
 **********************
 DD1Dir will call FoFMem   1 times, MxPair=        20
 NAB=    10 NAA=     0 NBB=     0.
 DE(CI)=     -0.18185639     E(CI)=       -340.51192781    
 NORM(A)=   0.11680560D+01
 Iteration Nr.   8
 **********************
 DD1Dir will call FoFMem   1 times, MxPair=        20
 NAB=    10 NAA=     0 NBB=     0.
 DE(CI)=     -0.18142273     E(CI)=       -340.51149415    
 NORM(A)=   0.11678006D+01
 Iteration Nr.   9
 **********************
 DD1Dir will call FoFMem   1 times, MxPair=        20
 NAB=    10 NAA=     0 NBB=     0.
 DE(CI)=     -0.18144098     E(CI)=       -340.51151241    
 NORM(A)=   0.11682356D+01
 Iteration Nr.  10
 **********************
 DD1Dir will call FoFMem   1 times, MxPair=        20
 NAB=    10 NAA=     0 NBB=     0.
 DE(CI)=     -0.18153539     E(CI)=       -340.51160681    
 NORM(A)=   0.11681586D+01
 Iteration Nr.  11
 **********************
 DD1Dir will call FoFMem   1 times, MxPair=        20
 NAB=    10 NAA=     0 NBB=     0.
 DE(CI)=     -0.18149993     E(CI)=       -340.51157135    
 NORM(A)=   0.11680461D+01
 Iteration Nr.  12
 **********************
 DD1Dir will call FoFMem   1 times, MxPair=        20
 NAB=    10 NAA=     0 NBB=     0.
 DE(CI)=     -0.18148317     E(CI)=       -340.51155460    
 NORM(A)=   0.11681516D+01
 Iteration Nr.  13
 **********************
 DD1Dir will call FoFMem   1 times, MxPair=        20
 NAB=    10 NAA=     0 NBB=     0.
 DE(CI)=     -0.18150990     E(CI)=       -340.51158132    
 NORM(A)=   0.11681752D+01
 Iteration Nr.  14
 **********************
 DD1Dir will call FoFMem   1 times, MxPair=        20
 NAB=    10 NAA=     0 NBB=     0.
 DE(CI)=     -0.18151021     E(CI)=       -340.51158164    
 NORM(A)=   0.11684195D+01
 Iteration Nr.  15
 **********************
 DD1Dir will call FoFMem   1 times, MxPair=        20
 NAB=    10 NAA=     0 NBB=     0.
 DE(CI)=     -0.18156276     E(CI)=       -340.51163418    
 NORM(A)=   0.11682246D+01
 Iteration Nr.  16
 **********************
 DD1Dir will call FoFMem   1 times, MxPair=        20
 NAB=    10 NAA=     0 NBB=     0.
 DE(CI)=     -0.18151149     E(CI)=       -340.51158291    
 NORM(A)=   0.11681105D+01
 Iteration Nr.  17
 **********************
 DD1Dir will call FoFMem   1 times, MxPair=        20
 NAB=    10 NAA=     0 NBB=     0.
 DE(CI)=     -0.18149605     E(CI)=       -340.51156748    
 NORM(A)=   0.11681334D+01
 Iteration Nr.  18
 **********************
 DD1Dir will call FoFMem   1 times, MxPair=        20
 NAB=    10 NAA=     0 NBB=     0.
 DE(CI)=     -0.18150371     E(CI)=       -340.51157513    
 NORM(A)=   0.11681386D+01
 Iteration Nr.  19
 **********************
 DD1Dir will call FoFMem   1 times, MxPair=        20
 NAB=    10 NAA=     0 NBB=     0.
 DE(CI)=     -0.18150345     E(CI)=       -340.51157487    
 NORM(A)=   0.11681330D+01
 Iteration Nr.  20
 **********************
 DD1Dir will call FoFMem   1 times, MxPair=        20
 NAB=    10 NAA=     0 NBB=     0.
 DE(CI)=     -0.18150235     E(CI)=       -340.51157377    
 NORM(A)=   0.11681353D+01
 Iteration Nr.  21
 **********************
 DD1Dir will call FoFMem   1 times, MxPair=        20
 NAB=    10 NAA=     0 NBB=     0.
 DE(CI)=     -0.18150305     E(CI)=       -340.51157447    
 NORM(A)=   0.11681372D+01
 Iteration Nr.  22
 **********************
 DD1Dir will call FoFMem   1 times, MxPair=        20
 NAB=    10 NAA=     0 NBB=     0.
 DE(CI)=     -0.18150333     E(CI)=       -340.51157475    
 NORM(A)=   0.11681398D+01
 Iteration Nr.  23
 **********************
 DD1Dir will call FoFMem   1 times, MxPair=        20
 NAB=    10 NAA=     0 NBB=     0.
 DE(CI)=     -0.18150381     E(CI)=       -340.51157523    
 NORM(A)=   0.11681418D+01
 Iteration Nr.  24
 **********************
 DD1Dir will call FoFMem   1 times, MxPair=        20
 NAB=    10 NAA=     0 NBB=     0.
 DE(CI)=     -0.18150412     E(CI)=       -340.51157554    
 NORM(A)=   0.11681417D+01
 Iteration Nr.  25
 **********************
 DD1Dir will call FoFMem   1 times, MxPair=        20
 NAB=    10 NAA=     0 NBB=     0.
 DE(CI)=     -0.18150403     E(CI)=       -340.51157545    
 NORM(A)=   0.11681388D+01
 ***************************************************************
 Dominant configurations:
 ***********************
 Spin Case        I    J    A    B          Value
   ABAB           7    7   12   12      -0.201313D+00
   ABAB           7    9   10   12      -0.129383D+00
   ABAB           7    9   12   10      -0.111943D+00
   ABAB           8    8   11   11      -0.204818D+00
   ABAB           8    9   10   11      -0.126319D+00
   ABAB           8    9   11   10      -0.108868D+00
   ABAB           9    7   10   12      -0.111943D+00
   ABAB           9    7   12   10      -0.129383D+00
   ABAB           9    8   10   11      -0.108868D+00
   ABAB           9    8   11   10      -0.126319D+00
   ABAB           9    9   10   10      -0.160504D+00
 Largest amplitude= 2.05D-01

 **********************************************************************

            Population analysis using the SCF density.

 **********************************************************************

 Orbital symmetries:
       Occupied  (A') (A') (A") (A') (A') (A') (A') (A") (A')
       Virtual   (A') (A") (A') (A') (A") (A') (A') (A') (A") (A')
 The electronic state is 1-A'.
 Alpha  occ. eigenvalues --  -79.52764  -7.57203  -5.45327  -5.45327  -5.45273
 Alpha  occ. eigenvalues --   -0.75217  -0.36032  -0.36017  -0.35435
 Alpha virt. eigenvalues --   -0.01503  -0.01200  -0.01181   0.55487   0.65376
 Alpha virt. eigenvalues --    0.65398   0.68584   1.19651   1.19670   1.21905
          Condensed to atoms (all electrons):
              1          2          3          4
     1  P   14.370733   0.199570   0.199560   0.199570
     2  H    0.199570   0.811422  -0.000408  -0.000416
     3  H    0.199560  -0.000408   0.811488  -0.000408
     4  H    0.199570  -0.000416  -0.000408   0.811422
 Mulliken atomic charges:
              1
     1  P    0.030567
     2  H   -0.010168
     3  H   -0.010232
     4  H   -0.010168
 Sum of Mulliken atomic charges =   0.00000
 Mulliken charges with hydrogens summed into heavy atoms:
              1
     1  P    0.000000
 Sum of Mulliken charges with hydrogens summed into heavy atoms =   0.00000
 Electronic spatial extent (au):  <R**2>=            103.1455
 Charge=              0.0000 electrons
 Dipole moment (field-independent basis, Debye):
    X=             -0.0002    Y=              0.3491    Z=              0.0000  Tot=              0.3491
 Quadrupole moment (field-independent basis, Debye-Ang):
   XX=            -17.5526   YY=            -18.0036   ZZ=            -17.5570
   XY=              0.0032   XZ=              0.0000   YZ=              0.0000
 Traceless Quadrupole moment (field-independent basis, Debye-Ang):
   XX=              0.1518   YY=             -0.2992   ZZ=              0.1474
   XY=              0.0032   XZ=              0.0000   YZ=              0.0000
 Octapole moment (field-independent basis, Debye-Ang**2):
  XXX=              1.6290  YYY=              4.2497  ZZZ=              0.0000  XYY=             -0.0089
  XXY=              0.0218  XXZ=              0.0000  XZZ=             -1.6255  YZZ=              0.0252
  YYZ=              0.0000  XYZ=              0.0000
 Hexadecapole moment (field-independent basis, Debye-Ang**3):
 XXXX=            -71.5968 YYYY=            -59.6903 ZZZZ=            -71.4449 XXXY=             -3.6281
 XXXZ=              0.0000 YYYX=             -0.0206 YYYZ=              0.0000 ZZZX=              0.0000
 ZZZY=              0.0000 XXYY=            -19.6871 XXZZ=            -23.8382 YYZZ=            -19.6405
 XXYZ=              0.0000 YYXZ=              0.0000 ZZXY=              3.5791
 N-N= 9.962061968223D+00 E-N=-8.290540966354D+02  KE= 3.390417329280D+02
 Symmetry A'   KE= 3.084646661759D+02
 Symmetry A"   KE= 3.057706675209D+01
 Variable Step   Value    
 -------- ---- -----------
     1       1    4.535343
 ---------------------------------------------------------------------------------------------------
                            Z-MATRIX (ANGSTROMS AND DEGREES)
   CD    Cent   Atom    N1       Length/X        N2       Alpha/Y        N3        Beta/Z          J
 ---------------------------------------------------------------------------------------------------
      1      1  P 
      2      2  H        1   2.400000(     1)
      3      3  H        1   2.400000(     2)      2   93.300(     4)
      4      4  H        1   2.400000(     3)      3   93.300(     5)      2  -93.300(     6)      0
 ---------------------------------------------------------------------------------------------------
                         Z-Matrix orientation:                         
 ---------------------------------------------------------------------
 Center     Atomic      Atomic             Coordinates (Angstroms)
 Number     Number       Type             X           Y           Z
 ---------------------------------------------------------------------
      1         15           0        0.000000    0.000000    0.000000
      2          1           0        0.000000    0.000000    2.400000
      3          1           0        2.396020    0.000000   -0.138154
      4          1           0       -0.145864   -2.392047   -0.129743
 ---------------------------------------------------------------------
                    Distance matrix (angstroms):
                    1          2          3          4
     1  P    0.000000
     2  H    2.400000   0.000000
     3  H    2.400000   3.490435   0.000000
     4  H    2.400000   3.484647   3.490435   0.000000
 Stoichiometry    H3P
 Framework group  CS[SG(HP),X(H2)]
 Deg. of freedom     4
 Full point group                 CS      NOp   2
 Largest Abelian subgroup         CS      NOp   2
 Largest concise Abelian subgroup CS      NOp   2
                         Standard orientation:                         
 ---------------------------------------------------------------------
 Center     Atomic      Atomic             Coordinates (Angstroms)
 Number     Number       Type             X           Y           Z
 ---------------------------------------------------------------------
      1         15           0        0.000000    0.217526    0.000000
      2          1           0       -1.008157   -1.089351    1.742324
      3          1           0        2.016313   -1.084196    0.000000
      4          1           0       -1.008157   -1.089351   -1.742324
 ---------------------------------------------------------------------
 Rotational constants (GHZ):     46.7462628     46.6290262     41.2050859
 Standard basis: 3-21G (6D, 7F)
 There are    14 symmetry adapted basis functions of A'  symmetry.
 There are     5 symmetry adapted basis functions of A"  symmetry.
 Integral buffers will be    262144 words long.
 Raffenetti 1 integral format.
 Two-electron integral symmetry is turned on.
    19 basis functions,    36 primitive gaussians,    19 cartesian basis functions
     9 alpha electrons        9 beta electrons
       nuclear repulsion energy        10.3771478836 Hartrees.
 NAtoms=    4 NActive=    4 NUniq=    3 SFac= 1.78D+00 NAtFMM=   50 NAOKFM=F Big=F
 One-electron integrals computed using PRISM.
 NBasis=    19 RedAO= T  NBF=    14     5
 NBsUse=    19 1.00D-06 NBFU=    14     5
 Initial guess read from the read-write file.
 B after Tr=     0.000000    0.000000    0.000000
         Rot=    1.000000    0.000000    0.000000    0.000000 Ang=   0.00 deg.
 Initial guess orbital symmetries:
       Occupied  (A') (A') (A") (A') (A') (A') (A') (A") (A')
       Virtual   (A') (A") (A') (A') (A") (A') (A') (A') (A") (A')
 Harris functional with IExCor=  205 diagonalized for initial guess.
 ExpMin= 1.23D-01 ExpMax= 1.05D+03 ExpMxC= 1.05D+03 IAcc=1 IRadAn=         1 AccDes= 0.00D+00
 HarFok:  IExCor=  205 AccDes= 0.00D+00 IRadAn=         1 IDoV= 1
 ScaDFX=  1.000000  1.000000  1.000000  1.000000
 FoFCou: FMM=F IPFlag=           0 FMFlag=      100000 FMFlg1=           0
         NFxFlg=           0 DoJE=T BraDBF=F KetDBF=T FulRan=T
         Omega=  0.000000  0.000000  1.000000  0.000000  0.000000 ICntrl=     500 IOpCl=  0
         NMat0=    1 NMatS0=    1 NMatT0=    0 NMatD0=    1 NMtDS0=    0 NMtDT0=    0
         I1Cent=           4 NGrid=           0.
 Petite list used in FoFCou.
 Requested convergence on RMS density matrix=1.00D-08 within 128 cycles.
 Requested convergence on MAX density matrix=1.00D-06.
 Requested convergence on             energy=1.00D-06.
 No special actions if energy rises.
 Keep R1 ints in memory in canonical form, NReq=837892.
 SCF Done:  E(RHF) =  -340.368612129     A.U. after    9 cycles
             Convg  =    0.5654D-08             -V/T =  2.0039
 ExpMin= 1.23D-01 ExpMax= 1.05D+03 ExpMxC= 1.05D+03 IAcc=1 IRadAn=         1 AccDes= 0.00D+00
 HarFok:  IExCor=  205 AccDes= 0.00D+00 IRadAn=         1 IDoV=-2
 ScaDFX=  1.000000  1.000000  1.000000  1.000000
 Range of M.O.s used for correlation:     6    19
 NBasis=    19 NAE=     9 NBE=     9 NFC=     5 NFV=     0
 NROrb=     14 NOA=     4 NOB=     4 NVA=    10 NVB=    10
 Semi-Direct transformation.
 ModeAB=           4 MOrb=             4 LenV=       6192478
 LASXX=         1099 LTotXX=        1099 LenRXX=        2506
 LTotAB=        1407 MaxLAS=        9744 LenRXY=           0
 NonZer=        3605 LenScr=     1048064 LnRSAI=        9744
 LnScr1=     1048064 LExtra=           0 Total=      2108378
 MaxDsk=          -1 SrtSym=           T ITran=            3
 JobTyp=0 Pass  1:  I=   1 to   4.
 (rs|ai) integrals will be sorted in core.
 Spin components of T(2) and E(2):
     alpha-alpha T2 =       0.4981100347D-02 E2=     -0.5933835825D-02
     alpha-beta  T2 =       0.1287312319D+00 E2=     -0.1178037965D+00
     beta-beta   T2 =       0.4981100347D-02 E2=     -0.5933835825D-02
 ANorm=    0.1067095794D+01
 E2 =    -0.1296714681D+00 EUMP2 =    -0.34049828359760D+03
 R2 and R3 integrals will be kept in memory, NReq=      836290.
 Iterations=  50 Convergence= 0.100D-06
 Iteration Nr.   1
 **********************
 DD1Dir will call FoFMem   1 times, MxPair=        20
 NAB=    10 NAA=     0 NBB=     0.
 E3=       -0.36050606D-01        EUMP3=      -0.34053433420D+03
 DE(CI)=     -0.14497437     E(CI)=       -340.51358650    
 NORM(A)=   0.10996387D+01
 Iteration Nr.   2
 **********************
 DD1Dir will call FoFMem   1 times, MxPair=        20
 NAB=    10 NAA=     0 NBB=     0.
 DE(CI)=     -0.16105785     E(CI)=       -340.52966998    
 NORM(A)=   0.11422610D+01
 Iteration Nr.   3
 **********************
 DD1Dir will call FoFMem   1 times, MxPair=        20
 NAB=    10 NAA=     0 NBB=     0.
 DE(CI)=     -0.17039658     E(CI)=       -340.53900871    
 NORM(A)=   0.11459509D+01
 Iteration Nr.   4
 **********************
 DD1Dir will call FoFMem   1 times, MxPair=        20
 NAB=    10 NAA=     0 NBB=     0.
 DE(CI)=     -0.16978559     E(CI)=       -340.53839772    
 NORM(A)=   0.11407117D+01
 Iteration Nr.   5
 **********************
 DD1Dir will call FoFMem   1 times, MxPair=        20
 NAB=    10 NAA=     0 NBB=     0.
 DE(CI)=     -0.16843969     E(CI)=       -340.53705182    
 NORM(A)=   0.11462096D+01
 Iteration Nr.   6
 **********************
 DD1Dir will call FoFMem   1 times, MxPair=        20
 NAB=    10 NAA=     0 NBB=     0.
 DE(CI)=     -0.16988568     E(CI)=       -340.53849781    
 NORM(A)=   0.11482414D+01
 Iteration Nr.   7
 **********************
 DD1Dir will call FoFMem   1 times, MxPair=        20
 NAB=    10 NAA=     0 NBB=     0.
 DE(CI)=     -0.17004862     E(CI)=       -340.53866075    
 NORM(A)=   0.11470877D+01
 Iteration Nr.   8
 **********************
 DD1Dir will call FoFMem   1 times, MxPair=        20
 NAB=    10 NAA=     0 NBB=     0.
 DE(CI)=     -0.16974513     E(CI)=       -340.53835726    
 NORM(A)=   0.11469746D+01
 Iteration Nr.   9
 **********************
 DD1Dir will call FoFMem   1 times, MxPair=        20
 NAB=    10 NAA=     0 NBB=     0.
 DE(CI)=     -0.16976821     E(CI)=       -340.53838034    
 NORM(A)=   0.11472074D+01
 Iteration Nr.  10
 **********************
 DD1Dir will call FoFMem   1 times, MxPair=        20
 NAB=    10 NAA=     0 NBB=     0.
 DE(CI)=     -0.16982012     E(CI)=       -340.53843225    
 NORM(A)=   0.11471402D+01
 Iteration Nr.  11
 **********************
 DD1Dir will call FoFMem   1 times, MxPair=        20
 NAB=    10 NAA=     0 NBB=     0.
 DE(CI)=     -0.16979555     E(CI)=       -340.53840768    
 NORM(A)=   0.11470937D+01
 Iteration Nr.  12
 **********************
 DD1Dir will call FoFMem   1 times, MxPair=        20
 NAB=    10 NAA=     0 NBB=     0.
 DE(CI)=     -0.16978977     E(CI)=       -340.53840190    
 NORM(A)=   0.11471460D+01
 Iteration Nr.  13
 **********************
 DD1Dir will call FoFMem   1 times, MxPair=        20
 NAB=    10 NAA=     0 NBB=     0.
 DE(CI)=     -0.16980303     E(CI)=       -340.53841516    
 NORM(A)=   0.11471533D+01
 Iteration Nr.  14
 **********************
 DD1Dir will call FoFMem   1 times, MxPair=        20
 NAB=    10 NAA=     0 NBB=     0.
 DE(CI)=     -0.16980253     E(CI)=       -340.53841466    
 NORM(A)=   0.11472357D+01
 Iteration Nr.  15
 **********************
 DD1Dir will call FoFMem   1 times, MxPair=        20
 NAB=    10 NAA=     0 NBB=     0.
 DE(CI)=     -0.16982136     E(CI)=       -340.53843349    
 NORM(A)=   0.11471160D+01
 Iteration Nr.  16
 **********************
 DD1Dir will call FoFMem   1 times, MxPair=        20
 NAB=    10 NAA=     0 NBB=     0.
 DE(CI)=     -0.16979108     E(CI)=       -340.53840321    
 NORM(A)=   0.11471325D+01
 Iteration Nr.  17
 **********************
 DD1Dir will call FoFMem   1 times, MxPair=        20
 NAB=    10 NAA=     0 NBB=     0.
 DE(CI)=     -0.16979971     E(CI)=       -340.53841183    
 NORM(A)=   0.11471351D+01
 Iteration Nr.  18
 **********************
 DD1Dir will call FoFMem   1 times, MxPair=        20
 NAB=    10 NAA=     0 NBB=     0.
 DE(CI)=     -0.16979892     E(CI)=       -340.53841105    
 NORM(A)=   0.11471358D+01
 Iteration Nr.  19
 **********************
 DD1Dir will call FoFMem   1 times, MxPair=        20
 NAB=    10 NAA=     0 NBB=     0.
 DE(CI)=     -0.16979921     E(CI)=       -340.53841134    
 NORM(A)=   0.11471071D+01
 Iteration Nr.  20
 **********************
 DD1Dir will call FoFMem   1 times, MxPair=        20
 NAB=    10 NAA=     0 NBB=     0.
 DE(CI)=     -0.16979263     E(CI)=       -340.53840475    
 NORM(A)=   0.11471408D+01
 Iteration Nr.  21
 **********************
 DD1Dir will call FoFMem   1 times, MxPair=        20
 NAB=    10 NAA=     0 NBB=     0.
 DE(CI)=     -0.16980134     E(CI)=       -340.53841347    
 NORM(A)=   0.11471397D+01
 Iteration Nr.  22
 **********************
 DD1Dir will call FoFMem   1 times, MxPair=        20
 NAB=    10 NAA=     0 NBB=     0.
 DE(CI)=     -0.16979972     E(CI)=       -340.53841185    
 NORM(A)=   0.11471395D+01
 Iteration Nr.  23
 **********************
 DD1Dir will call FoFMem   1 times, MxPair=        20
 NAB=    10 NAA=     0 NBB=     0.
 DE(CI)=     -0.16979992     E(CI)=       -340.53841205    
 NORM(A)=   0.11471412D+01
 Iteration Nr.  24
 **********************
 DD1Dir will call FoFMem   1 times, MxPair=        20
 NAB=    10 NAA=     0 NBB=     0.
 DE(CI)=     -0.16980030     E(CI)=       -340.53841243    
 NORM(A)=   0.11471309D+01
 Iteration Nr.  25
 **********************
 DD1Dir will call FoFMem   1 times, MxPair=        20
 NAB=    10 NAA=     0 NBB=     0.
 DE(CI)=     -0.16979791     E(CI)=       -340.53841003    
 NORM(A)=   0.11471405D+01
 Iteration Nr.  26
 **********************
 DD1Dir will call FoFMem   1 times, MxPair=        20
 NAB=    10 NAA=     0 NBB=     0.
 DE(CI)=     -0.16980042     E(CI)=       -340.53841255    
 NORM(A)=   0.11471385D+01
 Iteration Nr.  27
 **********************
 DD1Dir will call FoFMem   1 times, MxPair=        20
 NAB=    10 NAA=     0 NBB=     0.
 DE(CI)=     -0.16979958     E(CI)=       -340.53841171    
 NORM(A)=   0.11471393D+01
 Iteration Nr.  28
 **********************
 DD1Dir will call FoFMem   1 times, MxPair=        20
 NAB=    10 NAA=     0 NBB=     0.
 DE(CI)=     -0.16979988     E(CI)=       -340.53841201    
 NORM(A)=   0.11471419D+01
 Iteration Nr.  29
 **********************
 DD1Dir will call FoFMem   1 times, MxPair=        20
 NAB=    10 NAA=     0 NBB=     0.
 DE(CI)=     -0.16980041     E(CI)=       -340.53841254    
 NORM(A)=   0.11471407D+01
 Iteration Nr.  30
 **********************
 DD1Dir will call FoFMem   1 times, MxPair=        20
 NAB=    10 NAA=     0 NBB=     0.
 DE(CI)=     -0.16980005     E(CI)=       -340.53841218    
 NORM(A)=   0.11471405D+01
 Iteration Nr.  31
 **********************
 DD1Dir will call FoFMem   1 times, MxPair=        20
 NAB=    10 NAA=     0 NBB=     0.
 DE(CI)=     -0.16980007     E(CI)=       -340.53841220    
 NORM(A)=   0.11471406D+01
 ***************************************************************
 Dominant configurations:
 ***********************
 Spin Case        I    J    A    B          Value
   ABAB           7    7   12   12      -0.182926D+00
   ABAB           7    9   10   12      -0.117033D+00
   ABAB           7    9   12   10      -0.104679D+00
   ABAB           9    7   10   12      -0.104679D+00
   ABAB           9    7   12   10      -0.117033D+00
   ABAB           9    9   10   10      -0.141891D+00
   ABAB           8    8   11   11      -0.187771D+00
   ABAB           9    8   10   11      -0.100462D+00
   ABAB           9    8   11   10      -0.112812D+00
   ABAB           8    9   10   11      -0.112812D+00
   ABAB           8    9   11   10      -0.100462D+00
 Largest amplitude= 1.88D-01
 Variable Step   Value    
 -------- ---- -----------
     1       2    4.346370
 ---------------------------------------------------------------------------------------------------
                            Z-MATRIX (ANGSTROMS AND DEGREES)
   CD    Cent   Atom    N1       Length/X        N2       Alpha/Y        N3        Beta/Z          J
 ---------------------------------------------------------------------------------------------------
      1      1  P 
      2      2  H        1   2.300000(     1)
      3      3  H        1   2.300000(     2)      2   93.300(     4)
      4      4  H        1   2.300000(     3)      3   93.300(     5)      2  -93.300(     6)      0
 ---------------------------------------------------------------------------------------------------
                         Z-Matrix orientation:                         
 ---------------------------------------------------------------------
 Center     Atomic      Atomic             Coordinates (Angstroms)
 Number     Number       Type             X           Y           Z
 ---------------------------------------------------------------------
      1         15           0        0.000000    0.000000    0.000000
      2          1           0        0.000000    0.000000    2.300000
      3          1           0        2.296186    0.000000   -0.132397
      4          1           0       -0.139786   -2.292379   -0.124337
 ---------------------------------------------------------------------
                    Distance matrix (angstroms):
                    1          2          3          4
     1  P    0.000000
     2  H    2.300000   0.000000
     3  H    2.300000   3.345000   0.000000
     4  H    2.300000   3.339454   3.345000   0.000000
 Stoichiometry    H3P
 Framework group  CS[SG(HP),X(H2)]
 Deg. of freedom     4
 Full point group                 CS      NOp   2
 Largest Abelian subgroup         CS      NOp   2
 Largest concise Abelian subgroup CS      NOp   2
                         Standard orientation:                         
 ---------------------------------------------------------------------
 Center     Atomic      Atomic             Coordinates (Angstroms)
 Number     Number       Type             X           Y           Z
 ---------------------------------------------------------------------
      1         15           0        0.000000    0.208463    0.000000
      2          1           0       -0.966150   -1.043961    1.669727
      3          1           0        1.932300   -1.039021    0.000000
      4          1           0       -0.966150   -1.043961   -1.669727
 ---------------------------------------------------------------------
 Rotational constants (GHZ):     50.8995225     50.7718698     44.8660292
 Standard basis: 3-21G (6D, 7F)
 There are    14 symmetry adapted basis functions of A'  symmetry.
 There are     5 symmetry adapted basis functions of A"  symmetry.
 Integral buffers will be    262144 words long.
 Raffenetti 1 integral format.
 Two-electron integral symmetry is turned on.
    19 basis functions,    36 primitive gaussians,    19 cartesian basis functions
     9 alpha electrons        9 beta electrons
       nuclear repulsion energy        10.8283282263 Hartrees.
 NAtoms=    4 NActive=    4 NUniq=    3 SFac= 1.78D+00 NAtFMM=   50 NAOKFM=F Big=F
 One-electron integrals computed using PRISM.
 NBasis=    19 RedAO= T  NBF=    14     5
 NBsUse=    19 1.00D-06 NBFU=    14     5
 Initial guess read from the read-write file.
 B after Tr=     0.000000    0.000000    0.000000
         Rot=    1.000000    0.000000    0.000000    0.000000 Ang=   0.00 deg.
 Initial guess orbital symmetries:
       Occupied  (A') (A') (A") (A') (A') (A') (A') (A") (A')
       Virtual   (A') (A") (A') (A') (A") (A') (A') (A') (A") (A')
 Harris functional with IExCor=  205 diagonalized for initial guess.
 ExpMin= 1.23D-01 ExpMax= 1.05D+03 ExpMxC= 1.05D+03 IAcc=1 IRadAn=         1 AccDes= 0.00D+00
 HarFok:  IExCor=  205 AccDes= 0.00D+00 IRadAn=         1 IDoV= 1
 ScaDFX=  1.000000  1.000000  1.000000  1.000000
 FoFCou: FMM=F IPFlag=           0 FMFlag=      100000 FMFlg1=           0
         NFxFlg=           0 DoJE=T BraDBF=F KetDBF=T FulRan=T
         Omega=  0.000000  0.000000  1.000000  0.000000  0.000000 ICntrl=     500 IOpCl=  0
         NMat0=    1 NMatS0=    1 NMatT0=    0 NMatD0=    1 NMtDS0=    0 NMtDT0=    0
         I1Cent=           4 NGrid=           0.
 Petite list used in FoFCou.
 Requested convergence on RMS density matrix=1.00D-08 within 128 cycles.
 Requested convergence on MAX density matrix=1.00D-06.
 Requested convergence on             energy=1.00D-06.
 No special actions if energy rises.
 Keep R1 ints in memory in canonical form, NReq=837892.
 SCF Done:  E(RHF) =  -340.408476610     A.U. after    9 cycles
             Convg  =    0.4534D-08             -V/T =  2.0039
 ExpMin= 1.23D-01 ExpMax= 1.05D+03 ExpMxC= 1.05D+03 IAcc=1 IRadAn=         1 AccDes= 0.00D+00
 HarFok:  IExCor=  205 AccDes= 0.00D+00 IRadAn=         1 IDoV=-2
 ScaDFX=  1.000000  1.000000  1.000000  1.000000
 Range of M.O.s used for correlation:     6    19
 NBasis=    19 NAE=     9 NBE=     9 NFC=     5 NFV=     0
 NROrb=     14 NOA=     4 NOB=     4 NVA=    10 NVB=    10
 Semi-Direct transformation.
 ModeAB=           4 MOrb=             4 LenV=       6192394
 LASXX=         1099 LTotXX=        1099 LenRXX=        2506
 LTotAB=        1407 MaxLAS=        9744 LenRXY=           0
 NonZer=        3605 LenScr=     1048064 LnRSAI=        9744
 LnScr1=     1048064 LExtra=           0 Total=      2108378
 MaxDsk=          -1 SrtSym=           T ITran=            3
 JobTyp=0 Pass  1:  I=   1 to   4.
 (rs|ai) integrals will be sorted in core.
 Spin components of T(2) and E(2):
     alpha-alpha T2 =       0.4208393142D-02 E2=     -0.5427396394D-02
     alpha-beta  T2 =       0.1100609584D+00 E2=     -0.1086041826D+00
     beta-beta   T2 =       0.4208393142D-02 E2=     -0.5427396394D-02
 ANorm=    0.1057581082D+01
 E2 =    -0.1194589754D+00 EUMP2 =    -0.34052793558520D+03
 R2 and R3 integrals will be kept in memory, NReq=      836290.
 Iterations=  50 Convergence= 0.100D-06
 Iteration Nr.   1
 **********************
 DD1Dir will call FoFMem   1 times, MxPair=        20
 NAB=    10 NAA=     0 NBB=     0.
 E3=       -0.33334510D-01        EUMP3=      -0.34056127009D+03
 DE(CI)=     -0.13614533     E(CI)=       -340.54462194    
 NORM(A)=   0.10893806D+01
 Iteration Nr.   2
 **********************
 DD1Dir will call FoFMem   1 times, MxPair=        20
 NAB=    10 NAA=     0 NBB=     0.
 DE(CI)=     -0.15068902     E(CI)=       -340.55916563    
 NORM(A)=   0.11242472D+01
 Iteration Nr.   3
 **********************
 DD1Dir will call FoFMem   1 times, MxPair=        20
 NAB=    10 NAA=     0 NBB=     0.
 DE(CI)=     -0.15875083     E(CI)=       -340.56722744    
 NORM(A)=   0.11272796D+01
 Iteration Nr.   4
 **********************
 DD1Dir will call FoFMem   1 times, MxPair=        20
 NAB=    10 NAA=     0 NBB=     0.
 DE(CI)=     -0.15839623     E(CI)=       -340.56687284    
 NORM(A)=   0.11236252D+01
 Iteration Nr.   5
 **********************
 DD1Dir will call FoFMem   1 times, MxPair=        20
 NAB=    10 NAA=     0 NBB=     0.
 DE(CI)=     -0.15740315     E(CI)=       -340.56587976    
 NORM(A)=   0.11275137D+01
 Iteration Nr.   6
 **********************
 DD1Dir will call FoFMem   1 times, MxPair=        20
 NAB=    10 NAA=     0 NBB=     0.
 DE(CI)=     -0.15846524     E(CI)=       -340.56694185    
 NORM(A)=   0.11284786D+01
 Iteration Nr.   7
 **********************
 DD1Dir will call FoFMem   1 times, MxPair=        20
 NAB=    10 NAA=     0 NBB=     0.
 DE(CI)=     -0.15850641     E(CI)=       -340.56698302    
 NORM(A)=   0.11276687D+01
 Iteration Nr.   8
 **********************
 DD1Dir will call FoFMem   1 times, MxPair=        20
 NAB=    10 NAA=     0 NBB=     0.
 DE(CI)=     -0.15830076     E(CI)=       -340.56677737    
 NORM(A)=   0.11276890D+01
 Iteration Nr.   9
 **********************
 DD1Dir will call FoFMem   1 times, MxPair=        20
 NAB=    10 NAA=     0 NBB=     0.
 DE(CI)=     -0.15833669     E(CI)=       -340.56681330    
 NORM(A)=   0.11278172D+01
 Iteration Nr.  10
 **********************
 DD1Dir will call FoFMem   1 times, MxPair=        20
 NAB=    10 NAA=     0 NBB=     0.
 DE(CI)=     -0.15836398     E(CI)=       -340.56684059    
 NORM(A)=   0.11277363D+01
 Iteration Nr.  11
 **********************
 DD1Dir will call FoFMem   1 times, MxPair=        20
 NAB=    10 NAA=     0 NBB=     0.
 DE(CI)=     -0.15834022     E(CI)=       -340.56681683    
 NORM(A)=   0.11277321D+01
 Iteration Nr.  12
 **********************
 DD1Dir will call FoFMem   1 times, MxPair=        20
 NAB=    10 NAA=     0 NBB=     0.
 DE(CI)=     -0.15834316     E(CI)=       -340.56681977    
 NORM(A)=   0.11277635D+01
 Iteration Nr.  13
 **********************
 DD1Dir will call FoFMem   1 times, MxPair=        20
 NAB=    10 NAA=     0 NBB=     0.
 DE(CI)=     -0.15835039     E(CI)=       -340.56682700    
 NORM(A)=   0.11277549D+01
 Iteration Nr.  14
 **********************
 DD1Dir will call FoFMem   1 times, MxPair=        20
 NAB=    10 NAA=     0 NBB=     0.
 DE(CI)=     -0.15834725     E(CI)=       -340.56682386    
 NORM(A)=   0.11277908D+01
 Iteration Nr.  15
 **********************
 DD1Dir will call FoFMem   1 times, MxPair=        20
 NAB=    10 NAA=     0 NBB=     0.
 DE(CI)=     -0.15835625     E(CI)=       -340.56683286    
 NORM(A)=   0.11277483D+01
 Iteration Nr.  16
 **********************
 DD1Dir will call FoFMem   1 times, MxPair=        20
 NAB=    10 NAA=     0 NBB=     0.
 DE(CI)=     -0.15834485     E(CI)=       -340.56682146    
 NORM(A)=   0.11277359D+01
 Iteration Nr.  17
 **********************
 DD1Dir will call FoFMem   1 times, MxPair=        20
 NAB=    10 NAA=     0 NBB=     0.
 DE(CI)=     -0.15834356     E(CI)=       -340.56682017    
 NORM(A)=   0.11277599D+01
 Iteration Nr.  18
 **********************
 DD1Dir will call FoFMem   1 times, MxPair=        20
 NAB=    10 NAA=     0 NBB=     0.
 DE(CI)=     -0.15834939     E(CI)=       -340.56682600    
 NORM(A)=   0.11277438D+01
 Iteration Nr.  19
 **********************
 DD1Dir will call FoFMem   1 times, MxPair=        20
 NAB=    10 NAA=     0 NBB=     0.
 DE(CI)=     -0.15834476     E(CI)=       -340.56682137    
 NORM(A)=   0.11277430D+01
 Iteration Nr.  20
 **********************
 DD1Dir will call FoFMem   1 times, MxPair=        20
 NAB=    10 NAA=     0 NBB=     0.
 DE(CI)=     -0.15834523     E(CI)=       -340.56682184    
 NORM(A)=   0.11277494D+01
 Iteration Nr.  21
 **********************
 DD1Dir will call FoFMem   1 times, MxPair=        20
 NAB=    10 NAA=     0 NBB=     0.
 DE(CI)=     -0.15834666     E(CI)=       -340.56682327    
 NORM(A)=   0.11277504D+01
 Iteration Nr.  22
 **********************
 DD1Dir will call FoFMem   1 times, MxPair=        20
 NAB=    10 NAA=     0 NBB=     0.
 DE(CI)=     -0.15834671     E(CI)=       -340.56682331    
 NORM(A)=   0.11277519D+01
 Iteration Nr.  23
 **********************
 DD1Dir will call FoFMem   1 times, MxPair=        20
 NAB=    10 NAA=     0 NBB=     0.
 DE(CI)=     -0.15834705     E(CI)=       -340.56682366    
 NORM(A)=   0.11277464D+01
 Iteration Nr.  24
 **********************
 DD1Dir will call FoFMem   1 times, MxPair=        20
 NAB=    10 NAA=     0 NBB=     0.
 DE(CI)=     -0.15834568     E(CI)=       -340.56682229    
 NORM(A)=   0.11277512D+01
 Iteration Nr.  25
 **********************
 DD1Dir will call FoFMem   1 times, MxPair=        20
 NAB=    10 NAA=     0 NBB=     0.
 DE(CI)=     -0.15834702     E(CI)=       -340.56682363    
 NORM(A)=   0.11277513D+01
 Iteration Nr.  26
 **********************
 DD1Dir will call FoFMem   1 times, MxPair=        20
 NAB=    10 NAA=     0 NBB=     0.
 DE(CI)=     -0.15834687     E(CI)=       -340.56682348    
 NORM(A)=   0.11277513D+01
 Iteration Nr.  27
 **********************
 DD1Dir will call FoFMem   1 times, MxPair=        20
 NAB=    10 NAA=     0 NBB=     0.
 DE(CI)=     -0.15834689     E(CI)=       -340.56682350    
 NORM(A)=   0.11277513D+01
 ***************************************************************
 Dominant configurations:
 ***********************
 Spin Case        I    J    A    B          Value
   ABAB           7    7   10   10      -0.103368D+00
   ABAB           7    7   12   12      -0.140882D+00
   ABAB           7    9   10   12      -0.102181D+00
   ABAB           9    7   12   10      -0.102181D+00
   ABAB           9    9   10   10      -0.121408D+00
   ABAB           8    8   11   11      -0.171560D+00
 Largest amplitude= 1.72D-01
 Variable Step   Value    
 -------- ---- -----------
     1       3    4.157397
 ---------------------------------------------------------------------------------------------------
                            Z-MATRIX (ANGSTROMS AND DEGREES)
   CD    Cent   Atom    N1       Length/X        N2       Alpha/Y        N3        Beta/Z          J
 ---------------------------------------------------------------------------------------------------
      1      1  P 
      2      2  H        1   2.200000(     1)
      3      3  H        1   2.200000(     2)      2   93.300(     4)
      4      4  H        1   2.200000(     3)      3   93.300(     5)      2  -93.300(     6)      0
 ---------------------------------------------------------------------------------------------------
                         Z-Matrix orientation:                         
 ---------------------------------------------------------------------
 Center     Atomic      Atomic             Coordinates (Angstroms)
 Number     Number       Type             X           Y           Z
 ---------------------------------------------------------------------
      1         15           0        0.000000    0.000000    0.000000
      2          1           0        0.000000    0.000000    2.200000
      3          1           0        2.196352    0.000000   -0.126641
      4          1           0       -0.133709   -2.192710   -0.118931
 ---------------------------------------------------------------------
                    Distance matrix (angstroms):
                    1          2          3          4
     1  P    0.000000
     2  H    2.200000   0.000000
     3  H    2.200000   3.199566   0.000000
     4  H    2.200000   3.194260   3.199566   0.000000
 Stoichiometry    H3P
 Framework group  CS[SG(HP),X(H2)]
 Deg. of freedom     4
 Full point group                 CS      NOp   2
 Largest Abelian subgroup         CS      NOp   2
 Largest concise Abelian subgroup CS      NOp   2
                         Standard orientation:                         
 ---------------------------------------------------------------------
 Center     Atomic      Atomic             Coordinates (Angstroms)
 Number     Number       Type             X           Y           Z
 ---------------------------------------------------------------------
      1         15           0        0.000000    0.199399    0.000000
      2          1           0       -0.924144   -0.998572    1.597130
      3          1           0        1.848287   -0.993846    0.000000
      4          1           0       -0.924144   -0.998572   -1.597130
 ---------------------------------------------------------------------
 Rotational constants (GHZ):     55.6319161     55.4923949     49.0374576
 Standard basis: 3-21G (6D, 7F)
 There are    14 symmetry adapted basis functions of A'  symmetry.
 There are     5 symmetry adapted basis functions of A"  symmetry.
 Integral buffers will be    262144 words long.
 Raffenetti 1 integral format.
 Two-electron integral symmetry is turned on.
    19 basis functions,    36 primitive gaussians,    19 cartesian basis functions
     9 alpha electrons        9 beta electrons
       nuclear repulsion energy        11.3205249639 Hartrees.
 NAtoms=    4 NActive=    4 NUniq=    3 SFac= 1.78D+00 NAtFMM=   50 NAOKFM=F Big=F
 One-electron integrals computed using PRISM.
 NBasis=    19 RedAO= T  NBF=    14     5
 NBsUse=    19 1.00D-06 NBFU=    14     5
 Initial guess read from the read-write file.
 B after Tr=     0.000000    0.000000    0.000000
         Rot=    1.000000    0.000000    0.000000    0.000000 Ang=   0.00 deg.
 Initial guess orbital symmetries:
       Occupied  (A') (A') (A") (A') (A') (A') (A') (A") (A')
       Virtual   (A') (A") (A') (A') (A") (A') (A') (A') (A') (A")
 Harris functional with IExCor=  205 diagonalized for initial guess.
 ExpMin= 1.23D-01 ExpMax= 1.05D+03 ExpMxC= 1.05D+03 IAcc=1 IRadAn=         1 AccDes= 0.00D+00
 HarFok:  IExCor=  205 AccDes= 0.00D+00 IRadAn=         1 IDoV= 1
 ScaDFX=  1.000000  1.000000  1.000000  1.000000
 FoFCou: FMM=F IPFlag=           0 FMFlag=      100000 FMFlg1=           0
         NFxFlg=           0 DoJE=T BraDBF=F KetDBF=T FulRan=T
         Omega=  0.000000  0.000000  1.000000  0.000000  0.000000 ICntrl=     500 IOpCl=  0
         NMat0=    1 NMatS0=    1 NMatT0=    0 NMatD0=    1 NMtDS0=    0 NMtDT0=    0
         I1Cent=           4 NGrid=           0.
 Petite list used in FoFCou.
 Requested convergence on RMS density matrix=1.00D-08 within 128 cycles.
 Requested convergence on MAX density matrix=1.00D-06.
 Requested convergence on             energy=1.00D-06.
 No special actions if energy rises.
 Keep R1 ints in memory in canonical form, NReq=837892.
 SCF Done:  E(RHF) =  -340.449343240     A.U. after    9 cycles
             Convg  =    0.3629D-08             -V/T =  2.0039
 ExpMin= 1.23D-01 ExpMax= 1.05D+03 ExpMxC= 1.05D+03 IAcc=1 IRadAn=         1 AccDes= 0.00D+00
 HarFok:  IExCor=  205 AccDes= 0.00D+00 IRadAn=         1 IDoV=-2
 ScaDFX=  1.000000  1.000000  1.000000  1.000000
 Range of M.O.s used for correlation:     6    19
 NBasis=    19 NAE=     9 NBE=     9 NFC=     5 NFV=     0
 NROrb=     14 NOA=     4 NOB=     4 NVA=    10 NVB=    10
 Semi-Direct transformation.
 ModeAB=           4 MOrb=             4 LenV=       6192349
 LASXX=         1099 LTotXX=        1099 LenRXX=        2506
 LTotAB=        1407 MaxLAS=        9744 LenRXY=           0
 NonZer=        3605 LenScr=     1048064 LnRSAI=        9744
 LnScr1=     1048064 LExtra=           0 Total=      2108378
 MaxDsk=          -1 SrtSym=           T ITran=            3
 JobTyp=0 Pass  1:  I=   1 to   4.
 (rs|ai) integrals will be sorted in core.
 Spin components of T(2) and E(2):
     alpha-alpha T2 =       0.3576601716D-02 E2=     -0.4985227293D-02
     alpha-beta  T2 =       0.9403041994D-01 E2=     -0.1002488892D+00
     beta-beta   T2 =       0.3576601716D-02 E2=     -0.4985227293D-02
 ANorm=    0.1049372967D+01
 E2 =    -0.1102193438D+00 EUMP2 =    -0.34055956258367D+03
 R2 and R3 integrals will be kept in memory, NReq=      836290.
 Iterations=  50 Convergence= 0.100D-06
 Iteration Nr.   1
 **********************
 DD1Dir will call FoFMem   1 times, MxPair=        20
 NAB=    10 NAA=     0 NBB=     0.
 E3=       -0.30637393D-01        EUMP3=      -0.34059019998D+03
 DE(CI)=     -0.12754119     E(CI)=       -340.57688443    
 NORM(A)=   0.10793425D+01
 Iteration Nr.   2
 **********************
 DD1Dir will call FoFMem   1 times, MxPair=        20
 NAB=    10 NAA=     0 NBB=     0.
 DE(CI)=     -0.14064480     E(CI)=       -340.58998804    
 NORM(A)=   0.11073452D+01
 Iteration Nr.   3
 **********************
 DD1Dir will call FoFMem   1 times, MxPair=        20
 NAB=    10 NAA=     0 NBB=     0.
 DE(CI)=     -0.14749720     E(CI)=       -340.59684044    
 NORM(A)=   0.11097943D+01
 Iteration Nr.   4
 **********************
 DD1Dir will call FoFMem   1 times, MxPair=        20
 NAB=    10 NAA=     0 NBB=     0.
 DE(CI)=     -0.14732327     E(CI)=       -340.59666651    
 NORM(A)=   0.11074350D+01
 Iteration Nr.   5
 **********************
 DD1Dir will call FoFMem   1 times, MxPair=        20
 NAB=    10 NAA=     0 NBB=     0.
 DE(CI)=     -0.14663597     E(CI)=       -340.59597921    
 NORM(A)=   0.11100578D+01
 Iteration Nr.   6
 **********************
 DD1Dir will call FoFMem   1 times, MxPair=        20
 NAB=    10 NAA=     0 NBB=     0.
 DE(CI)=     -0.14737538     E(CI)=       -340.59671862    
 NORM(A)=   0.11103909D+01
 Iteration Nr.   7
 **********************
 DD1Dir will call FoFMem   1 times, MxPair=        20
 NAB=    10 NAA=     0 NBB=     0.
 DE(CI)=     -0.14734589     E(CI)=       -340.59668913    
 NORM(A)=   0.11098569D+01
 Iteration Nr.   8
 **********************
 DD1Dir will call FoFMem   1 times, MxPair=        20
 NAB=    10 NAA=     0 NBB=     0.
 DE(CI)=     -0.14721390     E(CI)=       -340.59655714    
 NORM(A)=   0.11099531D+01
 Iteration Nr.   9
 **********************
 DD1Dir will call FoFMem   1 times, MxPair=        20
 NAB=    10 NAA=     0 NBB=     0.
 DE(CI)=     -0.14725633     E(CI)=       -340.59659957    
 NORM(A)=   0.11100229D+01
 Iteration Nr.  10
 **********************
 DD1Dir will call FoFMem   1 times, MxPair=        20
 NAB=    10 NAA=     0 NBB=     0.
 DE(CI)=     -0.14726977     E(CI)=       -340.59661301    
 NORM(A)=   0.11099396D+01
 Iteration Nr.  11
 **********************
 DD1Dir will call FoFMem   1 times, MxPair=        20
 NAB=    10 NAA=     0 NBB=     0.
 DE(CI)=     -0.14724679     E(CI)=       -340.59659003    
 NORM(A)=   0.11099630D+01
 Iteration Nr.  12
 **********************
 DD1Dir will call FoFMem   1 times, MxPair=        20
 NAB=    10 NAA=     0 NBB=     0.
 DE(CI)=     -0.14725581     E(CI)=       -340.59659905    
 NORM(A)=   0.11099725D+01
 Iteration Nr.  13
 **********************
 DD1Dir will call FoFMem   1 times, MxPair=        20
 NAB=    10 NAA=     0 NBB=     0.
 DE(CI)=     -0.14725708     E(CI)=       -340.59660032    
 NORM(A)=   0.11099504D+01
 Iteration Nr.  14
 **********************
 DD1Dir will call FoFMem   1 times, MxPair=        20
 NAB=    10 NAA=     0 NBB=     0.
 DE(CI)=     -0.14725137     E(CI)=       -340.59659461    
 NORM(A)=   0.11099615D+01
 Iteration Nr.  15
 **********************
 DD1Dir will call FoFMem   1 times, MxPair=        20
 NAB=    10 NAA=     0 NBB=     0.
 DE(CI)=     -0.14725487     E(CI)=       -340.59659811    
 NORM(A)=   0.11099635D+01
 Iteration Nr.  16
 **********************
 DD1Dir will call FoFMem   1 times, MxPair=        20
 NAB=    10 NAA=     0 NBB=     0.
 DE(CI)=     -0.14725494     E(CI)=       -340.59659818    
 NORM(A)=   0.11099657D+01
 ***************************************************************
 Dominant configurations:
 ***********************
 Spin Case        I    J    A    B          Value
   ABAB           7    7   11   11      -0.159054D+00
   ABAB           9    9   12   12      -0.106804D+00
   ABAB           8    8   10   10      -0.156159D+00
 Largest amplitude= 1.59D-01
 Variable Step   Value    
 -------- ---- -----------
     1       4    3.968425
 ---------------------------------------------------------------------------------------------------
                            Z-MATRIX (ANGSTROMS AND DEGREES)
   CD    Cent   Atom    N1       Length/X        N2       Alpha/Y        N3        Beta/Z          J
 ---------------------------------------------------------------------------------------------------
      1      1  P 
      2      2  H        1   2.100000(     1)
      3      3  H        1   2.100000(     2)      2   93.300(     4)
      4      4  H        1   2.100000(     3)      3   93.300(     5)      2  -93.300(     6)      0
 ---------------------------------------------------------------------------------------------------
                         Z-Matrix orientation:                         
 ---------------------------------------------------------------------
 Center     Atomic      Atomic             Coordinates (Angstroms)
 Number     Number       Type             X           Y           Z
 ---------------------------------------------------------------------
      1         15           0        0.000000    0.000000    0.000000
      2          1           0        0.000000    0.000000    2.100000
      3          1           0        2.096518    0.000000   -0.120884
      4          1           0       -0.127631   -2.093041   -0.113525
 ---------------------------------------------------------------------
                    Distance matrix (angstroms):
                    1          2          3          4
     1  P    0.000000
     2  H    2.100000   0.000000
     3  H    2.100000   3.054131   0.000000
     4  H    2.100000   3.049066   3.054131   0.000000
 Stoichiometry    H3P
 Framework group  CS[SG(HP),X(H2)]
 Deg. of freedom     4
 Full point group                 CS      NOp   2
 Largest Abelian subgroup         CS      NOp   2
 Largest concise Abelian subgroup CS      NOp   2
                         Standard orientation:                         
 ---------------------------------------------------------------------
 Center     Atomic      Atomic             Coordinates (Angstroms)
 Number     Number       Type             X           Y           Z
 ---------------------------------------------------------------------
      1         15           0        0.000000    0.190336    0.000000
      2          1           0       -0.882137   -0.953182    1.524533
      3          1           0        1.764274   -0.948671    0.000000
      4          1           0       -0.882137   -0.953182   -1.524533
 ---------------------------------------------------------------------
 Rotational constants (GHZ):     61.0563433     60.9032180     53.8188877
 Standard basis: 3-21G (6D, 7F)
 There are    14 symmetry adapted basis functions of A'  symmetry.
 There are     5 symmetry adapted basis functions of A"  symmetry.
 Integral buffers will be    262144 words long.
 Raffenetti 1 integral format.
 Two-electron integral symmetry is turned on.
    19 basis functions,    36 primitive gaussians,    19 cartesian basis functions
     9 alpha electrons        9 beta electrons
       nuclear repulsion energy        11.8595975812 Hartrees.
 NAtoms=    4 NActive=    4 NUniq=    3 SFac= 1.78D+00 NAtFMM=   50 NAOKFM=F Big=F
 One-electron integrals computed using PRISM.
 NBasis=    19 RedAO= T  NBF=    14     5
 NBsUse=    19 1.00D-06 NBFU=    14     5
 Initial guess read from the read-write file.
 B after Tr=     0.000000    0.000000    0.000000
         Rot=    1.000000    0.000000    0.000000    0.000000 Ang=   0.00 deg.
 Initial guess orbital symmetries:
       Occupied  (A') (A') (A") (A') (A') (A') (A') (A") (A')
       Virtual   (A") (A') (A') (A') (A") (A') (A') (A') (A') (A")
 Harris functional with IExCor=  205 diagonalized for initial guess.
 ExpMin= 1.23D-01 ExpMax= 1.05D+03 ExpMxC= 1.05D+03 IAcc=1 IRadAn=         1 AccDes= 0.00D+00
 HarFok:  IExCor=  205 AccDes= 0.00D+00 IRadAn=         1 IDoV= 1
 ScaDFX=  1.000000  1.000000  1.000000  1.000000
 FoFCou: FMM=F IPFlag=           0 FMFlag=      100000 FMFlg1=           0
         NFxFlg=           0 DoJE=T BraDBF=F KetDBF=T FulRan=T
         Omega=  0.000000  0.000000  1.000000  0.000000  0.000000 ICntrl=     500 IOpCl=  0
         NMat0=    1 NMatS0=    1 NMatT0=    0 NMatD0=    1 NMtDS0=    0 NMtDT0=    0
         I1Cent=           4 NGrid=           0.
 Petite list used in FoFCou.
 Requested convergence on RMS density matrix=1.00D-08 within 128 cycles.
 Requested convergence on MAX density matrix=1.00D-06.
 Requested convergence on             energy=1.00D-06.
 No special actions if energy rises.
 Keep R1 ints in memory in canonical form, NReq=837892.
 SCF Done:  E(RHF) =  -340.490778928     A.U. after    9 cycles
             Convg  =    0.2900D-08             -V/T =  2.0038
 ExpMin= 1.23D-01 ExpMax= 1.05D+03 ExpMxC= 1.05D+03 IAcc=1 IRadAn=         1 AccDes= 0.00D+00
 HarFok:  IExCor=  205 AccDes= 0.00D+00 IRadAn=         1 IDoV=-2
 ScaDFX=  1.000000  1.000000  1.000000  1.000000
 Range of M.O.s used for correlation:     6    19
 NBasis=    19 NAE=     9 NBE=     9 NFC=     5 NFV=     0
 NROrb=     14 NOA=     4 NOB=     4 NVA=    10 NVB=    10
 Semi-Direct transformation.
 ModeAB=           4 MOrb=             4 LenV=       6192349
 LASXX=         1099 LTotXX=        1099 LenRXX=        2506
 LTotAB=        1407 MaxLAS=        9744 LenRXY=           0
 NonZer=        3605 LenScr=     1048064 LnRSAI=        9744
 LnScr1=     1048064 LExtra=           0 Total=      2108378
 MaxDsk=          -1 SrtSym=           T ITran=            3
 JobTyp=0 Pass  1:  I=   1 to   4.
 (rs|ai) integrals will be sorted in core.
 Spin components of T(2) and E(2):
     alpha-alpha T2 =       0.3065962835D-02 E2=     -0.4605662731D-02
     alpha-beta  T2 =       0.8031329924D-01 E2=     -0.9270025973D-01
     beta-beta   T2 =       0.3065962835D-02 E2=     -0.4605662731D-02
 ANorm=    0.1042326832D+01
 E2 =    -0.1019115852D+00 EUMP2 =    -0.34059269051288D+03
 R2 and R3 integrals will be kept in memory, NReq=      836290.
 Iterations=  50 Convergence= 0.100D-06
 Iteration Nr.   1
 **********************
 DD1Dir will call FoFMem   1 times, MxPair=        20
 NAB=    10 NAA=     0 NBB=     0.
 E3=       -0.28016760D-01        EUMP3=      -0.34062070727D+03
 DE(CI)=     -0.11929694     E(CI)=       -340.61007587    
 NORM(A)=   0.10697163D+01
 Iteration Nr.   2
 **********************
 DD1Dir will call FoFMem   1 times, MxPair=        20
 NAB=    10 NAA=     0 NBB=     0.
 DE(CI)=     -0.13101956     E(CI)=       -340.62179849    
 NORM(A)=   0.10917747D+01
 Iteration Nr.   3
 **********************
 DD1Dir will call FoFMem   1 times, MxPair=        20
 NAB=    10 NAA=     0 NBB=     0.
 DE(CI)=     -0.13675045     E(CI)=       -340.62752937    
 NORM(A)=   0.10937258D+01
 Iteration Nr.   4
 **********************
 DD1Dir will call FoFMem   1 times, MxPair=        20
 NAB=    10 NAA=     0 NBB=     0.
 DE(CI)=     -0.13669982     E(CI)=       -340.62747875    
 NORM(A)=   0.10923287D+01
 Iteration Nr.   5
 **********************
 DD1Dir will call FoFMem   1 times, MxPair=        20
 NAB=    10 NAA=     0 NBB=     0.
 DE(CI)=     -0.13625378     E(CI)=       -340.62703271    
 NORM(A)=   0.10939784D+01
 Iteration Nr.   6
 **********************
 DD1Dir will call FoFMem   1 times, MxPair=        20
 NAB=    10 NAA=     0 NBB=     0.
 DE(CI)=     -0.13673275     E(CI)=       -340.62751168    
 NORM(A)=   0.10940263D+01
 Iteration Nr.   7
 **********************
 DD1Dir will call FoFMem   1 times, MxPair=        20
 NAB=    10 NAA=     0 NBB=     0.
 DE(CI)=     -0.13668288     E(CI)=       -340.62746181    
 NORM(A)=   0.10937115D+01
 Iteration Nr.   8
 **********************
 DD1Dir will call FoFMem   1 times, MxPair=        20
 NAB=    10 NAA=     0 NBB=     0.
 DE(CI)=     -0.13660553     E(CI)=       -340.62738446    
 NORM(A)=   0.10938025D+01
 Iteration Nr.   9
 **********************
 DD1Dir will call FoFMem   1 times, MxPair=        20
 NAB=    10 NAA=     0 NBB=     0.
 DE(CI)=     -0.13663899     E(CI)=       -340.62741792    
 NORM(A)=   0.10938310D+01
 Iteration Nr.  10
 **********************
 DD1Dir will call FoFMem   1 times, MxPair=        20
 NAB=    10 NAA=     0 NBB=     0.
 DE(CI)=     -0.13664357     E(CI)=       -340.62742250    
 NORM(A)=   0.10937853D+01
 Iteration Nr.  11
 **********************
 DD1Dir will call FoFMem   1 times, MxPair=        20
 NAB=    10 NAA=     0 NBB=     0.
 DE(CI)=     -0.13663087     E(CI)=       -340.62740980    
 NORM(A)=   0.10938060D+01
 Iteration Nr.  12
 **********************
 DD1Dir will call FoFMem   1 times, MxPair=        20
 NAB=    10 NAA=     0 NBB=     0.
 DE(CI)=     -0.13663781     E(CI)=       -340.62741674    
 NORM(A)=   0.10938061D+01
 Iteration Nr.  13
 **********************
 DD1Dir will call FoFMem   1 times, MxPair=        20
 NAB=    10 NAA=     0 NBB=     0.
 DE(CI)=     -0.13663710     E(CI)=       -340.62741602    
 NORM(A)=   0.10938065D+01
 Iteration Nr.  14
 **********************
 DD1Dir will call FoFMem   1 times, MxPair=        20
 NAB=    10 NAA=     0 NBB=     0.
 DE(CI)=     -0.13663726     E(CI)=       -340.62741619    
 NORM(A)=   0.10938066D+01
 Iteration Nr.  15
 **********************
 DD1Dir will call FoFMem   1 times, MxPair=        20
 NAB=    10 NAA=     0 NBB=     0.
 DE(CI)=     -0.13663728     E(CI)=       -340.62741621    
 NORM(A)=   0.10938047D+01
 Iteration Nr.  16
 **********************
 DD1Dir will call FoFMem   1 times, MxPair=        20
 NAB=    10 NAA=     0 NBB=     0.
 DE(CI)=     -0.13663676     E(CI)=       -340.62741569    
 NORM(A)=   0.10938043D+01
 Iteration Nr.  17
 **********************
 DD1Dir will call FoFMem   1 times, MxPair=        20
 NAB=    10 NAA=     0 NBB=     0.
 DE(CI)=     -0.13663670     E(CI)=       -340.62741563    
 NORM(A)=   0.10938017D+01
 Iteration Nr.  18
 **********************
 DD1Dir will call FoFMem   1 times, MxPair=        20
 NAB=    10 NAA=     0 NBB=     0.
 DE(CI)=     -0.13663605     E(CI)=       -340.62741498    
 NORM(A)=   0.10938011D+01
 Iteration Nr.  19
 **********************
 DD1Dir will call FoFMem   1 times, MxPair=        20
 NAB=    10 NAA=     0 NBB=     0.
 DE(CI)=     -0.13663598     E(CI)=       -340.62741491    
 NORM(A)=   0.10938032D+01
 ***************************************************************
 Dominant configurations:
 ***********************
 Spin Case        I    J    A    B          Value
   ABAB           7    7   11   11      -0.142430D+00
   ABAB           8    8   10   10      -0.141553D+00
 Largest amplitude= 1.42D-01
 Variable Step   Value    
 -------- ---- -----------
     1       5    3.779452
 ---------------------------------------------------------------------------------------------------
                            Z-MATRIX (ANGSTROMS AND DEGREES)
   CD    Cent   Atom    N1       Length/X        N2       Alpha/Y        N3        Beta/Z          J
 ---------------------------------------------------------------------------------------------------
      1      1  P 
      2      2  H        1   2.000000(     1)
      3      3  H        1   2.000000(     2)      2   93.300(     4)
      4      4  H        1   2.000000(     3)      3   93.300(     5)      2  -93.300(     6)      0
 ---------------------------------------------------------------------------------------------------
                         Z-Matrix orientation:                         
 ---------------------------------------------------------------------
 Center     Atomic      Atomic             Coordinates (Angstroms)
 Number     Number       Type             X           Y           Z
 ---------------------------------------------------------------------
      1         15           0        0.000000    0.000000    0.000000
      2          1           0        0.000000    0.000000    2.000000
      3          1           0        1.996684    0.000000   -0.115128
      4          1           0       -0.121553   -1.993373   -0.108119
 ---------------------------------------------------------------------
                    Distance matrix (angstroms):
                    1          2          3          4
     1  P    0.000000
     2  H    2.000000   0.000000
     3  H    2.000000   2.908696   0.000000
     4  H    2.000000   2.903873   2.908696   0.000000
 Stoichiometry    H3P
 Framework group  CS[SG(HP),X(H2)]
 Deg. of freedom     4
 Full point group                 CS      NOp   2
 Largest Abelian subgroup         CS      NOp   2
 Largest concise Abelian subgroup CS      NOp   2
                         Standard orientation:                         
 ---------------------------------------------------------------------
 Center     Atomic      Atomic             Coordinates (Angstroms)
 Number     Number       Type             X           Y           Z
 ---------------------------------------------------------------------
      1         15           0        0.000000    0.181272    0.000000
      2          1           0       -0.840131   -0.907792    1.451936
      3          1           0        1.680261   -0.903496    0.000000
      4          1           0       -0.840131   -0.907792   -1.451936
 ---------------------------------------------------------------------
 Rotational constants (GHZ):     67.3146185     67.1457978     59.3353237
 Standard basis: 3-21G (6D, 7F)
 There are    14 symmetry adapted basis functions of A'  symmetry.
 There are     5 symmetry adapted basis functions of A"  symmetry.
 Integral buffers will be    262144 words long.
 Raffenetti 1 integral format.
 Two-electron integral symmetry is turned on.
    19 basis functions,    36 primitive gaussians,    19 cartesian basis functions
     9 alpha electrons        9 beta electrons
       nuclear repulsion energy        12.4525774603 Hartrees.
 NAtoms=    4 NActive=    4 NUniq=    3 SFac= 1.78D+00 NAtFMM=   50 NAOKFM=F Big=F
 One-electron integrals computed using PRISM.
 NBasis=    19 RedAO= T  NBF=    14     5
 NBsUse=    19 1.00D-06 NBFU=    14     5
 Initial guess read from the read-write file.
 B after Tr=     0.000000    0.000000    0.000000
         Rot=    1.000000    0.000000    0.000000    0.000000 Ang=   0.00 deg.
 Initial guess orbital symmetries:
       Occupied  (A') (A') (A") (A') (A') (A') (A') (A") (A')
       Virtual   (A") (A') (A') (A') (A") (A') (A') (A') (A') (A")
 Harris functional with IExCor=  205 diagonalized for initial guess.
 ExpMin= 1.23D-01 ExpMax= 1.05D+03 ExpMxC= 1.05D+03 IAcc=1 IRadAn=         1 AccDes= 0.00D+00
 HarFok:  IExCor=  205 AccDes= 0.00D+00 IRadAn=         1 IDoV= 1
 ScaDFX=  1.000000  1.000000  1.000000  1.000000
 FoFCou: FMM=F IPFlag=           0 FMFlag=      100000 FMFlg1=           0
         NFxFlg=           0 DoJE=T BraDBF=F KetDBF=T FulRan=T
         Omega=  0.000000  0.000000  1.000000  0.000000  0.000000 ICntrl=     500 IOpCl=  0
         NMat0=    1 NMatS0=    1 NMatT0=    0 NMatD0=    1 NMtDS0=    0 NMtDT0=    0
         I1Cent=           4 NGrid=           0.
 Petite list used in FoFCou.
 Requested convergence on RMS density matrix=1.00D-08 within 128 cycles.
 Requested convergence on MAX density matrix=1.00D-06.
 Requested convergence on             energy=1.00D-06.
 No special actions if energy rises.
 Keep R1 ints in memory in canonical form, NReq=837892.
 SCF Done:  E(RHF) =  -340.532217789     A.U. after    9 cycles
             Convg  =    0.2352D-08             -V/T =  2.0037
 ExpMin= 1.23D-01 ExpMax= 1.05D+03 ExpMxC= 1.05D+03 IAcc=1 IRadAn=         1 AccDes= 0.00D+00
 HarFok:  IExCor=  205 AccDes= 0.00D+00 IRadAn=         1 IDoV=-2
 ScaDFX=  1.000000  1.000000  1.000000  1.000000
 Range of M.O.s used for correlation:     6    19
 NBasis=    19 NAE=     9 NBE=     9 NFC=     5 NFV=     0
 NROrb=     14 NOA=     4 NOB=     4 NVA=    10 NVB=    10
 Semi-Direct transformation.
 ModeAB=           4 MOrb=             4 LenV=       6192349
 LASXX=         1099 LTotXX=        1099 LenRXX=        2506
 LTotAB=        1407 MaxLAS=        9744 LenRXY=           0
 NonZer=        3605 LenScr=     1048064 LnRSAI=        9744
 LnScr1=     1048064 LExtra=           0 Total=      2108378
 MaxDsk=          -1 SrtSym=           T ITran=            3
 JobTyp=0 Pass  1:  I=   1 to   4.
 (rs|ai) integrals will be sorted in core.
 Spin components of T(2) and E(2):
     alpha-alpha T2 =       0.2658396936D-02 E2=     -0.4286451432D-02
     alpha-beta  T2 =       0.6861442445D-01 E2=     -0.8591919365D-01
     beta-beta   T2 =       0.2658396936D-02 E2=     -0.4286451432D-02
 ANorm=    0.1036306527D+01
 E2 =    -0.9449209652D-01 EUMP2 =    -0.34062670988558D+03
 R2 and R3 integrals will be kept in memory, NReq=      836290.
 Iterations=  50 Convergence= 0.100D-06
 Iteration Nr.   1
 **********************
 DD1Dir will call FoFMem   1 times, MxPair=        20
 NAB=    10 NAA=     0 NBB=     0.
 E3=       -0.25519157D-01        EUMP3=      -0.34065222904D+03
 DE(CI)=     -0.11152390     E(CI)=       -340.64374169    
 NORM(A)=   0.10606813D+01
 Iteration Nr.   2
 **********************
 DD1Dir will call FoFMem   1 times, MxPair=        20
 NAB=    10 NAA=     0 NBB=     0.
 DE(CI)=     -0.12191036     E(CI)=       -340.65412815    
 NORM(A)=   0.10777031D+01
 Iteration Nr.   3
 **********************
 DD1Dir will call FoFMem   1 times, MxPair=        20
 NAB=    10 NAA=     0 NBB=     0.
 DE(CI)=     -0.12662127     E(CI)=       -340.65883906    
 NORM(A)=   0.10792327D+01
 Iteration Nr.   4
 **********************
 DD1Dir will call FoFMem   1 times, MxPair=        20
 NAB=    10 NAA=     0 NBB=     0.
 DE(CI)=     -0.12664889     E(CI)=       -340.65886668    
 NORM(A)=   0.10784803D+01
 Iteration Nr.   5
 **********************
 DD1Dir will call FoFMem   1 times, MxPair=        20
 NAB=    10 NAA=     0 NBB=     0.
 DE(CI)=     -0.12637623     E(CI)=       -340.65859402    
 NORM(A)=   0.10794333D+01
 Iteration Nr.   6
 **********************
 DD1Dir will call FoFMem   1 times, MxPair=        20
 NAB=    10 NAA=     0 NBB=     0.
 DE(CI)=     -0.12666106     E(CI)=       -340.65887885    
 NORM(A)=   0.10794080D+01
 Iteration Nr.   7
 **********************
 DD1Dir will call FoFMem   1 times, MxPair=        20
 NAB=    10 NAA=     0 NBB=     0.
 DE(CI)=     -0.12662245     E(CI)=       -340.65884024    
 NORM(A)=   0.10792582D+01
 Iteration Nr.   8
 **********************
 DD1Dir will call FoFMem   1 times, MxPair=        20
 NAB=    10 NAA=     0 NBB=     0.
 DE(CI)=     -0.12658508     E(CI)=       -340.65880287    
 NORM(A)=   0.10792893D+01
 Iteration Nr.   9
 **********************
 DD1Dir will call FoFMem   1 times, MxPair=        20
 NAB=    10 NAA=     0 NBB=     0.
 DE(CI)=     -0.12659767     E(CI)=       -340.65881546    
 NORM(A)=   0.10793163D+01
 Iteration Nr.  10
 **********************
 DD1Dir will call FoFMem   1 times, MxPair=        20
 NAB=    10 NAA=     0 NBB=     0.
 DE(CI)=     -0.12660436     E(CI)=       -340.65882215    
 NORM(A)=   0.10792184D+01
 Iteration Nr.  11
 **********************
 DD1Dir will call FoFMem   1 times, MxPair=        20
 NAB=    10 NAA=     0 NBB=     0.
 DE(CI)=     -0.12657621     E(CI)=       -340.65879400    
 NORM(A)=   0.10792977D+01
 Iteration Nr.  12
 **********************
 DD1Dir will call FoFMem   1 times, MxPair=        20
 NAB=    10 NAA=     0 NBB=     0.
 DE(CI)=     -0.12660120     E(CI)=       -340.65881899    
 NORM(A)=   0.10792989D+01
 Iteration Nr.  13
 **********************
 DD1Dir will call FoFMem   1 times, MxPair=        20
 NAB=    10 NAA=     0 NBB=     0.
 DE(CI)=     -0.12659919     E(CI)=       -340.65881698    
 NORM(A)=   0.10792989D+01
 Iteration Nr.  14
 **********************
 DD1Dir will call FoFMem   1 times, MxPair=        20
 NAB=    10 NAA=     0 NBB=     0.
 DE(CI)=     -0.12659940     E(CI)=       -340.65881718    
 NORM(A)=   0.10792981D+01
 Iteration Nr.  15
 **********************
 DD1Dir will call FoFMem   1 times, MxPair=        20
 NAB=    10 NAA=     0 NBB=     0.
 DE(CI)=     -0.12659912     E(CI)=       -340.65881691    
 NORM(A)=   0.10793016D+01
 Iteration Nr.  16
 **********************
 DD1Dir will call FoFMem   1 times, MxPair=        20
 NAB=    10 NAA=     0 NBB=     0.
 DE(CI)=     -0.12660014     E(CI)=       -340.65881793    
 NORM(A)=   0.10792979D+01
 Iteration Nr.  17
 **********************
 DD1Dir will call FoFMem   1 times, MxPair=        20
 NAB=    10 NAA=     0 NBB=     0.
 DE(CI)=     -0.12659902     E(CI)=       -340.65881681    
 NORM(A)=   0.10792967D+01
 Iteration Nr.  18
 **********************
 DD1Dir will call FoFMem   1 times, MxPair=        20
 NAB=    10 NAA=     0 NBB=     0.
 DE(CI)=     -0.12659882     E(CI)=       -340.65881661    
 NORM(A)=   0.10792973D+01
 Iteration Nr.  19
 **********************
 DD1Dir will call FoFMem   1 times, MxPair=        20
 NAB=    10 NAA=     0 NBB=     0.
 DE(CI)=     -0.12659900     E(CI)=       -340.65881679    
 NORM(A)=   0.10792974D+01
 Iteration Nr.  20
 **********************
 DD1Dir will call FoFMem   1 times, MxPair=        20
 NAB=    10 NAA=     0 NBB=     0.
 DE(CI)=     -0.12659902     E(CI)=       -340.65881681    
 NORM(A)=   0.10792978D+01
 ***************************************************************
 Dominant configurations:
 ***********************
 Spin Case        I    J    A    B          Value
   ABAB           7    7   11   11      -0.128030D+00
   ABAB           8    8   10   10      -0.127725D+00
 Largest amplitude= 1.28D-01
 Variable Step   Value    
 -------- ---- -----------
     1       6    3.590480
[...]
 Iteration Nr.   7
 **********************
 DD1Dir will call FoFMem   1 times, MxPair=        20
 NAB=    10 NAA=     0 NBB=     0.
 DE(CI)=     -0.69095157E-01 E(CI)=       -340.31018898    
 NORM(A)=   0.10173882D+01
 ***************************************************************
 Largest amplitude= 4.13D-02
 Variable Step   Value    
 -------- ---- -----------
     1      16    1.700754
 ---------------------------------------------------------------------------------------------------
                            Z-MATRIX (ANGSTROMS AND DEGREES)
   CD    Cent   Atom    N1       Length/X        N2       Alpha/Y        N3        Beta/Z          J
 ---------------------------------------------------------------------------------------------------
      1      1  P 
      2      2  H        1   0.900000(     1)
      3      3  H        1   0.900000(     2)      2   93.300(     4)
      4      4  H        1   0.900000(     3)      3   93.300(     5)      2  -93.300(     6)      0
 ---------------------------------------------------------------------------------------------------
                         Z-Matrix orientation:                         
 ---------------------------------------------------------------------
 Center     Atomic      Atomic             Coordinates (Angstroms)
 Number     Number       Type             X           Y           Z
 ---------------------------------------------------------------------
      1         15           0        0.000000    0.000000    0.000000
      2          1           0        0.000000    0.000000    0.900000
      3          1           0        0.898508    0.000000   -0.051808
      4          1           0       -0.054699   -0.897018   -0.048654
 ---------------------------------------------------------------------
                    Distance matrix (angstroms):
                    1          2          3          4
     1  P    0.000000
     2  H    0.900000   0.000000
     3  H    0.900000   1.308913   0.000000
     4  H    0.900000   1.306743   1.308913   0.000000
 Stoichiometry    H3P
 Framework group  CS[SG(HP),X(H2)]
 Deg. of freedom     4
 Full point group                 CS      NOp   2
 Largest Abelian subgroup         CS      NOp   2
 Largest concise Abelian subgroup CS      NOp   2
                         Standard orientation:                         
 ---------------------------------------------------------------------
 Center     Atomic      Atomic             Coordinates (Angstroms)
 Number     Number       Type             X           Y           Z
 ---------------------------------------------------------------------
      1         15           0        0.000000    0.081572    0.000000
      2          1           0       -0.378059   -0.408507    0.653371
      3          1           0        0.756118   -0.406573    0.000000
      4          1           0       -0.378059   -0.408507   -0.653371
 ---------------------------------------------------------------------
 Rotational constants (GHZ):    332.4178691    331.5841867    293.0139440
 Standard basis: 3-21G (6D, 7F)
 There are    14 symmetry adapted basis functions of A'  symmetry.
 There are     5 symmetry adapted basis functions of A"  symmetry.
 Integral buffers will be    262144 words long.
 Raffenetti 1 integral format.
 Two-electron integral symmetry is turned on.
    19 basis functions,    36 primitive gaussians,    19 cartesian basis functions
     9 alpha electrons        9 beta electrons
       nuclear repulsion energy        27.6723943562 Hartrees.



 Warning!  P  atom    1 may be hypervalent but has no d functions.



 NAtoms=    4 NActive=    4 NUniq=    3 SFac= 1.78D+00 NAtFMM=   50 NAOKFM=F Big=F
 One-electron integrals computed using PRISM.
 NBasis=    19 RedAO= T  NBF=    14     5
 NBsUse=    19 1.00D-06 NBFU=    14     5
 Initial guess read from the read-write file.
 B after Tr=     0.000000    0.000000    0.000000
         Rot=    1.000000    0.000000    0.000000    0.000000 Ang=   0.00 deg.
 Initial guess orbital symmetries:
       Occupied  (A') (A') (A') (A") (A') (A') (A') (A") (A')
       Virtual   (A") (A') (A') (A') (A') (A") (A') (A") (A') (A')
 Harris functional with IExCor=  205 diagonalized for initial guess.
 ExpMin= 1.23D-01 ExpMax= 1.05D+03 ExpMxC= 1.05D+03 IAcc=1 IRadAn=         1 AccDes= 0.00D+00
 HarFok:  IExCor=  205 AccDes= 0.00D+00 IRadAn=         1 IDoV= 1
 ScaDFX=  1.000000  1.000000  1.000000  1.000000
 FoFCou: FMM=F IPFlag=           0 FMFlag=      100000 FMFlg1=           0
         NFxFlg=           0 DoJE=T BraDBF=F KetDBF=T FulRan=T
         Omega=  0.000000  0.000000  1.000000  0.000000  0.000000 ICntrl=     500 IOpCl=  0
         NMat0=    1 NMatS0=    1 NMatT0=    0 NMatD0=    1 NMtDS0=    0 NMtDT0=    0
         I1Cent=           4 NGrid=           0.
 Petite list used in FoFCou.
 Requested convergence on RMS density matrix=1.00D-08 within 128 cycles.
 Requested convergence on MAX density matrix=1.00D-06.
 Requested convergence on             energy=1.00D-06.
 No special actions if energy rises.
 Keep R1 ints in memory in canonical form, NReq=837892.
 SCF Done:  E(RHF) =  -339.832122535     A.U. after   10 cycles
             Convg  =    0.9043D-09             -V/T =  1.9871
 ExpMin= 1.23D-01 ExpMax= 1.05D+03 ExpMxC= 1.05D+03 IAcc=1 IRadAn=         1 AccDes= 0.00D+00
 HarFok:  IExCor=  205 AccDes= 0.00D+00 IRadAn=         1 IDoV=-2
 ScaDFX=  1.000000  1.000000  1.000000  1.000000
 Range of M.O.s used for correlation:     6    19
 NBasis=    19 NAE=     9 NBE=     9 NFC=     5 NFV=     0
 NROrb=     14 NOA=     4 NOB=     4 NVA=    10 NVB=    10
 Semi-Direct transformation.
 ModeAB=           4 MOrb=             4 LenV=       6192091
 LASXX=         1099 LTotXX=        1099 LenRXX=        2506
 LTotAB=        1407 MaxLAS=        9744 LenRXY=           0
 NonZer=        3605 LenScr=     1048064 LnRSAI=        9744
 LnScr1=     1048064 LExtra=           0 Total=      2108378
 MaxDsk=          -1 SrtSym=           T ITran=            3
 JobTyp=0 Pass  1:  I=   1 to   4.
 (rs|ai) integrals will be sorted in core.
 Spin components of T(2) and E(2):
     alpha-alpha T2 =       0.1007404039D-02 E2=     -0.2552310357D-02
     alpha-beta  T2 =       0.1816454827D-01 E2=     -0.4830603503D-01
     beta-beta   T2 =       0.1007404039D-02 E2=     -0.2552310357D-02
 ANorm=    0.1010039285D+01
 E2 =    -0.5341065574D-01 EUMP2 =    -0.33988553319113D+03
 R2 and R3 integrals will be kept in memory, NReq=      836290.
 Iterations=  50 Convergence= 0.100D-06
 Iteration Nr.   1
 **********************
 DD1Dir will call FoFMem   1 times, MxPair=        20
 NAB=    10 NAA=     0 NBB=     0.
 E3=       -0.11748411D-01        EUMP3=      -0.33989728160D+03
 DE(CI)=     -0.63867879E-01 E(CI)=       -339.89599041    
 NORM(A)=   0.10157871D+01
 Iteration Nr.   2
 **********************
 DD1Dir will call FoFMem   1 times, MxPair=        20
 NAB=    10 NAA=     0 NBB=     0.
 DE(CI)=     -0.67088972E-01 E(CI)=       -339.89921151    
 NORM(A)=   0.10164695D+01
 Iteration Nr.   3
 **********************
 DD1Dir will call FoFMem   1 times, MxPair=        20
 NAB=    10 NAA=     0 NBB=     0.
 DE(CI)=     -0.67379308E-01 E(CI)=       -339.89950184    
 NORM(A)=   0.10165211D+01
 Iteration Nr.   4
 **********************
 DD1Dir will call FoFMem   1 times, MxPair=        20
 NAB=    10 NAA=     0 NBB=     0.
 DE(CI)=     -0.67400278E-01 E(CI)=       -339.89952281    
 NORM(A)=   0.10165353D+01
 Iteration Nr.   5
 **********************
 DD1Dir will call FoFMem   1 times, MxPair=        20
 NAB=    10 NAA=     0 NBB=     0.
 DE(CI)=     -0.67404901E-01 E(CI)=       -339.89952744    
 NORM(A)=   0.10165349D+01
 Iteration Nr.   6
 **********************
 DD1Dir will call FoFMem   1 times, MxPair=        20
 NAB=    10 NAA=     0 NBB=     0.
 DE(CI)=     -0.67404544E-01 E(CI)=       -339.89952708    
 NORM(A)=   0.10165346D+01
 Iteration Nr.   7
 **********************
 DD1Dir will call FoFMem   1 times, MxPair=        20
 NAB=    10 NAA=     0 NBB=     0.
 DE(CI)=     -0.67404443E-01 E(CI)=       -339.89952698    
 NORM(A)=   0.10165346D+01
 Iteration Nr.   8
 **********************
 DD1Dir will call FoFMem   1 times, MxPair=        20
 NAB=    10 NAA=     0 NBB=     0.
 DE(CI)=     -0.67404469E-01 E(CI)=       -339.89952700    
 NORM(A)=   0.10165346D+01
 ***************************************************************
 Largest amplitude= 3.99D-02
 Variable Step   Value    
 -------- ---- -----------
     1      17    1.511781
 ---------------------------------------------------------------------------------------------------
                            Z-MATRIX (ANGSTROMS AND DEGREES)
   CD    Cent   Atom    N1       Length/X        N2       Alpha/Y        N3        Beta/Z          J
 ---------------------------------------------------------------------------------------------------
      1      1  P 
      2      2  H        1   0.800000(     1)
      3      3  H        1   0.800000(     2)      2   93.300(     4)
      4      4  H        1   0.800000(     3)      3   93.300(     5)      2  -93.300(     6)      0
 ---------------------------------------------------------------------------------------------------
                         Z-Matrix orientation:                         
 ---------------------------------------------------------------------
 Center     Atomic      Atomic             Coordinates (Angstroms)
 Number     Number       Type             X           Y           Z
 ---------------------------------------------------------------------
      1         15           0        0.000000    0.000000    0.000000
      2          1           0        0.000000    0.000000    0.800000
      3          1           0        0.798673    0.000000   -0.046051
      4          1           0       -0.048621   -0.797349   -0.043248
 ---------------------------------------------------------------------
                    Distance matrix (angstroms):
                    1          2          3          4
     1  P    0.000000
     2  H    0.800000   0.000000
     3  H    0.800000   1.163478   0.000000
     4  H    0.800000   1.161549   1.163478   0.000000
 Stoichiometry    H3P
 Framework group  CS[SG(HP),X(H2)]
 Deg. of freedom     4
 Full point group                 CS      NOp   2
 Largest Abelian subgroup         CS      NOp   2
 Largest concise Abelian subgroup CS      NOp   2
                         Standard orientation:                         
 ---------------------------------------------------------------------
 Center     Atomic      Atomic             Coordinates (Angstroms)
 Number     Number       Type             X           Y           Z
 ---------------------------------------------------------------------
      1         15           0        0.000000    0.072509    0.000000
      2          1           0       -0.336052   -0.363117    0.580775
      3          1           0        0.672104   -0.361399    0.000000
      4          1           0       -0.336052   -0.363117   -0.580775
 ---------------------------------------------------------------------
 Rotational constants (GHZ):    420.7163656    419.6612362    370.8457728
 Standard basis: 3-21G (6D, 7F)
 There are    14 symmetry adapted basis functions of A'  symmetry.
 There are     5 symmetry adapted basis functions of A"  symmetry.
 Integral buffers will be    262144 words long.
 Raffenetti 1 integral format.
 Two-electron integral symmetry is turned on.
    19 basis functions,    36 primitive gaussians,    19 cartesian basis functions
     9 alpha electrons        9 beta electrons
       nuclear repulsion energy        31.1314436507 Hartrees.



 Warning!  P  atom    1 may be hypervalent but has no d functions.



 NAtoms=    4 NActive=    4 NUniq=    3 SFac= 1.78D+00 NAtFMM=   50 NAOKFM=F Big=F
 One-electron integrals computed using PRISM.
 NBasis=    19 RedAO= T  NBF=    14     5
 NBsUse=    19 1.00D-06 NBFU=    14     5
 Initial guess read from the read-write file.
 B after Tr=     0.000000    0.000000    0.000000
         Rot=    1.000000    0.000000    0.000000    0.000000 Ang=   0.00 deg.
 Initial guess orbital symmetries:
       Occupied  (A') (A') (A') (A") (A') (A') (A') (A") (A')
       Virtual   (A") (A') (A') (A') (A") (A') (A') (A") (A') (A')
 Harris functional with IExCor=  205 diagonalized for initial guess.
 ExpMin= 1.23D-01 ExpMax= 1.05D+03 ExpMxC= 1.05D+03 IAcc=1 IRadAn=         1 AccDes= 0.00D+00
 HarFok:  IExCor=  205 AccDes= 0.00D+00 IRadAn=         1 IDoV= 1
 ScaDFX=  1.000000  1.000000  1.000000  1.000000
 FoFCou: FMM=F IPFlag=           0 FMFlag=      100000 FMFlg1=           0
         NFxFlg=           0 DoJE=T BraDBF=F KetDBF=T FulRan=T
         Omega=  0.000000  0.000000  1.000000  0.000000  0.000000 ICntrl=     500 IOpCl=  0
         NMat0=    1 NMatS0=    1 NMatT0=    0 NMatD0=    1 NMtDS0=    0 NMtDT0=    0
         I1Cent=           4 NGrid=           0.
 Petite list used in FoFCou.
 Requested convergence on RMS density matrix=1.00D-08 within 128 cycles.
 Requested convergence on MAX density matrix=1.00D-06.
 Requested convergence on             energy=1.00D-06.
 No special actions if energy rises.
 Keep R1 ints in memory in canonical form, NReq=837892.
 SCF Done:  E(RHF) =  -339.162467231     A.U. after   10 cycles
             Convg  =    0.2769D-08             -V/T =  1.9809
 ExpMin= 1.23D-01 ExpMax= 1.05D+03 ExpMxC= 1.05D+03 IAcc=1 IRadAn=         1 AccDes= 0.00D+00
 HarFok:  IExCor=  205 AccDes= 0.00D+00 IRadAn=         1 IDoV=-2
 ScaDFX=  1.000000  1.000000  1.000000  1.000000
 Range of M.O.s used for correlation:     6    19
 NBasis=    19 NAE=     9 NBE=     9 NFC=     5 NFV=     0
 NROrb=     14 NOA=     4 NOB=     4 NVA=    10 NVB=    10
 Semi-Direct transformation.
 ModeAB=           4 MOrb=             4 LenV=       6192091
 LASXX=         1099 LTotXX=        1099 LenRXX=        2506
 LTotAB=        1407 MaxLAS=        9744 LenRXY=           0
 NonZer=        3605 LenScr=     1048064 LnRSAI=        9744
 LnScr1=     1048064 LExtra=           0 Total=      2108378
 MaxDsk=          -1 SrtSym=           T ITran=            3
 JobTyp=0 Pass  1:  I=   1 to   4.
 (rs|ai) integrals will be sorted in core.
 Spin components of T(2) and E(2):
     alpha-alpha T2 =       0.9696023058D-03 E2=     -0.2537515211D-02
     alpha-beta  T2 =       0.1760117805D-01 E2=     -0.4765798287D-01
     beta-beta   T2 =       0.9696023058D-03 E2=     -0.2537515211D-02
 ANorm=    0.1009722924D+01
 E2 =    -0.5273301329D-01 EUMP2 =    -0.33921520024449D+03
 R2 and R3 integrals will be kept in memory, NReq=      836290.
 Iterations=  50 Convergence= 0.100D-06
 Iteration Nr.   1
 **********************
 DD1Dir will call FoFMem   1 times, MxPair=        20
 NAB=    10 NAA=     0 NBB=     0.
 E3=       -0.11656122D-01        EUMP3=      -0.33922685637D+03
 DE(CI)=     -0.63152306E-01 E(CI)=       -339.22561954    
 NORM(A)=   0.10154025D+01
 Iteration Nr.   2
 **********************
 DD1Dir will call FoFMem   1 times, MxPair=        20
 NAB=    10 NAA=     0 NBB=     0.
 DE(CI)=     -0.66440188E-01 E(CI)=       -339.22890742    
 NORM(A)=   0.10161222D+01
 Iteration Nr.   3
 **********************
 DD1Dir will call FoFMem   1 times, MxPair=        20
 NAB=    10 NAA=     0 NBB=     0.
 DE(CI)=     -0.66752158E-01 E(CI)=       -339.22921939    
 NORM(A)=   0.10161763D+01
 Iteration Nr.   4
 **********************
 DD1Dir will call FoFMem   1 times, MxPair=        20
 NAB=    10 NAA=     0 NBB=     0.
 DE(CI)=     -0.66774257E-01 E(CI)=       -339.22924149    
 NORM(A)=   0.10161899D+01
 Iteration Nr.   5
 **********************
 DD1Dir will call FoFMem   1 times, MxPair=        20
 NAB=    10 NAA=     0 NBB=     0.
 DE(CI)=     -0.66778742E-01 E(CI)=       -339.22924597    
 NORM(A)=   0.10161897D+01
 Iteration Nr.   6
 **********************
 DD1Dir will call FoFMem   1 times, MxPair=        20
 NAB=    10 NAA=     0 NBB=     0.
 DE(CI)=     -0.66778499E-01 E(CI)=       -339.22924573    
 NORM(A)=   0.10161894D+01
 Iteration Nr.   7
 **********************
 DD1Dir will call FoFMem   1 times, MxPair=        20
 NAB=    10 NAA=     0 NBB=     0.
 DE(CI)=     -0.66778374E-01 E(CI)=       -339.22924561    
 NORM(A)=   0.10161894D+01
 Iteration Nr.   8
 **********************
 DD1Dir will call FoFMem   1 times, MxPair=        20
 NAB=    10 NAA=     0 NBB=     0.
 DE(CI)=     -0.66778400E-01 E(CI)=       -339.22924563    
 NORM(A)=   0.10161894D+01
 ***************************************************************
 Largest amplitude= 4.82D-02
 Scan completed.

 Summary of the potential surface scan:
   N      B1          SCF          MP2          MP3    
 ----  ---------  -----------  -----------  -----------
    1     2.5000   -340.33007   -340.47097   -340.50968
    2     2.4000   -340.36861   -340.49828   -340.53433
    3     2.3000   -340.40848   -340.52794   -340.56127
    4     2.2000   -340.44934   -340.55956   -340.59020
    5     2.1000   -340.49078   -340.59269   -340.62071
    6     2.0000   -340.53222   -340.62671   -340.65223
    7     1.9000   -340.57292   -340.66083   -340.68402
    8     1.8000   -340.61188   -340.69401   -340.71505
    9     1.7000   -340.64763   -340.72468   -340.74380
   10     1.6000   -340.67779   -340.75041   -340.76786
   11     1.5000   -340.69843   -340.76718   -340.78320
   12     1.4000   -340.70303   -340.76834   -340.78318
   13     1.3000   -340.68104   -340.74328   -340.75716
   14     1.2000   -340.61597   -340.67545   -340.68856
   15     1.1000   -340.48238   -340.53938   -340.55187
   16     1.0000   -340.24109   -340.29600   -340.30803
   17     0.9000   -339.83212   -339.88553   -339.89728
   18     0.8000   -339.16247   -339.21520   -339.22686
 ----  ---------  -----------  -----------  -----------
  
 1|1|UNPC-DESKTOP-RA5CP68|Scan|RCISD-FC|3-21G|H3P1|FELIPE|27-Nov-2023|1
 ||# scan rcisd/3-21g guess=mix||PH3-DIS-3-21g-cisd||0,1|P|H,1,B1|H,1,B
 1,2,93.3|H,1,B1,3,93.3,2,-93.3,0||B1=2.5,s,17,-0.1||Version=IA32W-G09R
 evB.01|HF=-340.3300714,-340.3686121,-340.4084766,-340.4493432,-340.490
 7789,-340.5322178,-340.572921,-340.6118835,-340.6476266,-340.6777889,-
 340.6984339,-340.703027,-340.6810369,-340.6159747,-340.4823793,-340.24
 10938,-339.8321225,-339.1624672|MP2=-340.4709665,-340.4982836,-340.527
 9356,-340.5595626,-340.5926905,-340.6267099,-340.6608346,-340.694006,-
 340.72468,-340.7504148,-340.7671799,-340.7683419,-340.7432819,-340.675
 451,-340.5393785,-340.2959959,-339.8855332,-339.2152002|MP3=-340.50968
 08,-340.5343342,-340.5612701,-340.5902,-340.6207073,-340.652229,-340.6
 840178,-340.7150475,-340.7438018,-340.7678593,-340.7831985,-340.783179
 5,-340.7571605,-340.6885593,-340.5518746,-340.3080305,-339.8972816,-33
 9.2268564|CISD=-340.5115754,-340.5384122,-340.5668235,-340.5965982,-34
 0.6274149,-340.6588168,-340.6901682,-340.7205554,-340.7485703,-340.771
 8887,-340.7865682,-340.7860213,-340.7596289,-340.6908042,-340.5540249,
 -340.310189,-339.899527,-339.2292456|RMSD=8.586e-009,5.654e-009,4.534e
 -009,3.629e-009,2.900e-009,2.352e-009,1.989e-009,1.801e-009,1.771e-009
 ,1.904e-009,2.254e-009,2.756e-009,1.768e-009,9.744e-009,9.285e-010,9.9
 74e-009,9.043e-010,2.769e-009|PG=CS [SG(H1P1),X(H2)]||@


 THE PROGRESS OF RIVERS TO THE SEA IS NOT AS RAPID
 AS THAT OF MAN TO ERROR.
                                              -- VOLTAIRE
 Job cpu time:  0 days  0 hours  0 minutes 22.0 seconds.
 File lengths (MBytes):  RWF=     22 Int=      0 D2E=      0 Chk=      1 Scr=      1
 Normal termination of Gaussian 09 at Mon Nov 27 18:07:13 2023.
