 Entering Link 1 = C:\G09W\l1.exe PID=     20960.
  
 Copyright (c) 1988,1990,1992,1993,1995,1998,2003,2009,2010,
            Gaussian, Inc.  All Rights Reserved.
  
 This is part of the Gaussian(R) 09 program.  It is based on
 the Gaussian(R) 03 system (copyright 2003, Gaussian, Inc.),
 the Gaussian(R) 98 system (copyright 1998, Gaussian, Inc.),
 the Gaussian(R) 94 system (copyright 1995, Gaussian, Inc.),
 the Gaussian 92(TM) system (copyright 1992, Gaussian, Inc.),
 the Gaussian 90(TM) system (copyright 1990, Gaussian, Inc.),
 the Gaussian 88(TM) system (copyright 1988, Gaussian, Inc.),
 the Gaussian 86(TM) system (copyright 1986, Carnegie Mellon
 University), and the Gaussian 82(TM) system (copyright 1983,
 Carnegie Mellon University). Gaussian is a federally registered
 trademark of Gaussian, Inc.
  
 This software contains proprietary and confidential information,
 including trade secrets, belonging to Gaussian, Inc.
  
 This software is provided under written license and may be
 used, copied, transmitted, or stored only in accord with that
 written license.
  
 The following legend is applicable only to US Government
 contracts under FAR:
  
                    RESTRICTED RIGHTS LEGEND
  
 Use, reproduction and disclosure by the US Government is
 subject to restrictions as set forth in subparagraphs (a)
 and (c) of the Commercial Computer Software - Restricted
 Rights clause in FAR 52.227-19.
  
 Gaussian, Inc.
 340 Quinnipiac St., Bldg. 40, Wallingford CT 06492
  
  
 ---------------------------------------------------------------
 Warning -- This program may not be used in any manner that
 competes with the business of Gaussian, Inc. or will provide
 assistance to any competitor of Gaussian, Inc.  The licensee
 of this program is prohibited from giving any competitor of
 Gaussian, Inc. access to this program.  By using this program,
 the user acknowledges that Gaussian, Inc. is engaged in the
 business of creating and licensing software in the field of
 computational chemistry and represents and warrants to the
 licensee that it is not a competitor of Gaussian, Inc. and that
 it will not use this program in any manner prohibited above.
 ---------------------------------------------------------------
  

 Cite this work as:
 Gaussian 09, Revision B.01,
 M. J. Frisch, G. W. Trucks, H. B. Schlegel, G. E. Scuseria, 
 M. A. Robb, J. R. Cheeseman, G. Scalmani, V. Barone, B. Mennucci, 
 G. A. Petersson, H. Nakatsuji, M. Caricato, X. Li, H. P. Hratchian, 
 A. F. Izmaylov, J. Bloino, G. Zheng, J. L. Sonnenberg, M. Hada, 
 M. Ehara, K. Toyota, R. Fukuda, J. Hasegawa, M. Ishida, T. Nakajima, 
 Y. Honda, O. Kitao, H. Nakai, T. Vreven, J. A. Montgomery, Jr., 
 J. E. Peralta, F. Ogliaro, M. Bearpark, J. J. Heyd, E. Brothers, 
 K. N. Kudin, V. N. Staroverov, T. Keith, R. Kobayashi, J. Normand, 
 K. Raghavachari, A. Rendell, J. C. Burant, S. S. Iyengar, J. Tomasi, 
 M. Cossi, N. Rega, J. M. Millam, M. Klene, J. E. Knox, J. B. Cross, 
 V. Bakken, C. Adamo, J. Jaramillo, R. Gomperts, R. E. Stratmann, 
 O. Yazyev, A. J. Austin, R. Cammi, C. Pomelli, J. W. Ochterski, 
 R. L. Martin, K. Morokuma, V. G. Zakrzewski, G. A. Voth, 
 P. Salvador, J. J. Dannenberg, S. Dapprich, A. D. Daniels, 
 O. Farkas, J. B. Foresman, J. V. Ortiz, J. Cioslowski, 
 and D. J. Fox, Gaussian, Inc., Wallingford CT, 2010.
 
 ******************************************
 Gaussian 09:  IA32W-G09RevB.01 12-Aug-2010
                07-Nov-2023 
 ******************************************
 %chk=PH3-OPTGEOM-RHF-sto3g.chk
 %mem=6MW
 %nproc=1
 Will use up to    1 processors via shared memory.
 ---------------------
 # rhf/sto-3g opt freq
 ---------------------
 1/18=20,19=15,38=1/1,3;
 2/9=110,12=2,17=6,18=5,40=1/2;
 3/6=3,11=1,16=1,25=1,30=1,71=1,116=1/1,2,3;
 4//1;
 5/5=2,38=5/2;
 6/7=2,8=2,9=2,10=2,28=1/1;
 7//1,2,3,16;
 1/18=20,19=15/3(2);
 2/9=110/2;
 99//99;
 2/9=110/2;
 3/6=3,11=1,16=1,25=1,30=1,71=1,116=1/1,2,3;
 4/5=5,16=3/1;
 5/5=2,38=5/2;
 7//1,2,3,16;
 1/18=20,19=15/3(-5);
 2/9=110/2;
 6/7=2,8=2,9=2,10=2,19=2,28=1/1;
 99/9=1/99;
 ---------------------
 PH3-EXPGEOM-RHF-sto3g
 ---------------------
 Symbolic Z-matrix:
 Charge =  0 Multiplicity = 1
 P1                    0.        0.        0. 
 H2                    0.       -1.1932   -0.7717 
 H3                    1.0333    0.5966   -0.7717 
 H4                   -1.0333    0.5966   -0.7717 
 

 GradGradGradGradGradGradGradGradGradGradGradGradGradGradGradGradGradGrad
 Berny optimization.
 Initialization pass.
                           ----------------------------
                           !    Initial Parameters    !
                           ! (Angstroms and Degrees)  !
 --------------------------                            --------------------------
 ! Name  Definition              Value          Derivative Info.                !
 --------------------------------------------------------------------------------
 ! R1    R(1,2)                  1.421          estimate D2E/DX2                !
 ! R2    R(1,3)                  1.421          estimate D2E/DX2                !
 ! R3    R(1,4)                  1.421          estimate D2E/DX2                !
 ! A1    A(2,1,3)               93.3031         estimate D2E/DX2                !
 ! A2    A(2,1,4)               93.3031         estimate D2E/DX2                !
 ! A3    A(3,1,4)               93.3007         estimate D2E/DX2                !
 ! D1    D(2,1,4,3)            -93.5051         estimate D2E/DX2                !
 --------------------------------------------------------------------------------
 Trust Radius=3.00D-01 FncErr=1.00D-07 GrdErr=1.00D-07
 Number of steps in this run=     20 maximum allowed number of steps=    100.
 GradGradGradGradGradGradGradGradGradGradGradGradGradGradGradGradGradGrad

                          Input orientation:                          
 ---------------------------------------------------------------------
 Center     Atomic      Atomic             Coordinates (Angstroms)
 Number     Number       Type             X           Y           Z
 ---------------------------------------------------------------------
      1         15           0        0.000000    0.000000    0.000000
      2          1           0        0.000000   -1.193200   -0.771700
      3          1           0        1.033300    0.596600   -0.771700
      4          1           0       -1.033300    0.596600   -0.771700
 ---------------------------------------------------------------------
                    Distance matrix (angstroms):
                    1          2          3          4
     1  P    0.000000
     2  H    1.421002   0.000000
     3  H    1.420972   2.066662   0.000000
     4  H    1.420972   2.066662   2.066600   0.000000
 Stoichiometry    H3P
 Framework group  CS[SG(HP),X(H2)]
 Deg. of freedom     4
 Full point group                 CS      NOp   2
 Largest Abelian subgroup         CS      NOp   2
 Largest concise Abelian subgroup CS      NOp   2
                         Standard orientation:                         
 ---------------------------------------------------------------------
 Center     Atomic      Atomic             Coordinates (Angstroms)
 Number     Number       Type             X           Y           Z
 ---------------------------------------------------------------------
      1         15           0        0.000000    0.128617    0.000000
      2          1           0       -1.193200   -0.643083    0.000000
      3          1           0        0.596600   -0.643083    1.033300
      4          1           0        0.596600   -0.643083   -1.033300
 ---------------------------------------------------------------------
 Rotational constants (GHZ):    133.2559896    133.2499140    117.4090990
 Standard basis: STO-3G (5D, 7F)
 There are     9 symmetry adapted basis functions of A'  symmetry.
 There are     3 symmetry adapted basis functions of A"  symmetry.
 Integral buffers will be    262144 words long.
 Raffenetti 1 integral format.
 Two-electron integral symmetry is turned on.
    12 basis functions,    36 primitive gaussians,    12 cartesian basis functions
     9 alpha electrons        9 beta electrons
       nuclear repulsion energy        17.5262806456 Hartrees.
 NAtoms=    4 NActive=    4 NUniq=    3 SFac= 1.78D+00 NAtFMM=   50 NAOKFM=F Big=F
 One-electron integrals computed using PRISM.
 NBasis=    12 RedAO= T  NBF=     9     3
 NBsUse=    12 1.00D-06 NBFU=     9     3
 Harris functional with IExCor=  205 diagonalized for initial guess.
 ExpMin= 1.69D-01 ExpMax= 4.68D+02 ExpMxC= 4.68D+02 IAcc=1 IRadAn=         1 AccDes= 0.00D+00
 HarFok:  IExCor=  205 AccDes= 0.00D+00 IRadAn=         1 IDoV= 1
 ScaDFX=  1.000000  1.000000  1.000000  1.000000
 FoFCou: FMM=F IPFlag=           0 FMFlag=      100000 FMFlg1=           0
         NFxFlg=           0 DoJE=T BraDBF=F KetDBF=T FulRan=T
         Omega=  0.000000  0.000000  1.000000  0.000000  0.000000 ICntrl=     500 IOpCl=  0
         NMat0=    1 NMatS0=    1 NMatT0=    0 NMatD0=    1 NMtDS0=    0 NMtDT0=    0
         I1Cent=           4 NGrid=           0.
 Petite list used in FoFCou.
 Initial guess orbital symmetries:
       Occupied  (A') (A') (A") (A') (A') (A') (A') (A") (A')
       Virtual   (A") (A') (A')
 The electronic state of the initial guess is 1-A'.
 Requested convergence on RMS density matrix=1.00D-08 within 128 cycles.
 Requested convergence on MAX density matrix=1.00D-06.
 Requested convergence on             energy=1.00D-06.
 No special actions if energy rises.
 Keep R1 ints in memory in canonical form, NReq=822817.
 SCF Done:  E(RHF) =  -338.633481304     A.U. after    7 cycles
             Convg  =    0.1329D-08             -V/T =  2.0130

 **********************************************************************

            Population analysis using the SCF density.

 **********************************************************************

 Orbital symmetries:
       Occupied  (A') (A') (A") (A') (A') (A') (A') (A") (A')
       Virtual   (A") (A') (A')
 The electronic state is 1-A'.
 Alpha  occ. eigenvalues --  -78.93639  -7.24888  -5.07238  -5.07238  -5.07000
 Alpha  occ. eigenvalues --   -0.79907  -0.44859  -0.44859  -0.29904
 Alpha virt. eigenvalues --    0.47124   0.47124   0.60920
          Condensed to atoms (all electrons):
              1          2          3          4
     1  P   13.765246   0.294780   0.294783   0.294783
     2  H    0.294780   0.851224  -0.014601  -0.014601
     3  H    0.294783  -0.014601   0.851224  -0.014603
     4  H    0.294783  -0.014601  -0.014603   0.851224
 Mulliken atomic charges:
              1
     1  P    0.350408
     2  H   -0.116802
     3  H   -0.116803
     4  H   -0.116803
 Sum of Mulliken atomic charges =   0.00000
 Mulliken charges with hydrogens summed into heavy atoms:
              1
     1  P    0.000000
 Sum of Mulliken charges with hydrogens summed into heavy atoms =   0.00000
 Electronic spatial extent (au):  <R**2>=             51.1059
 Charge=              0.0000 electrons
 Dipole moment (field-independent basis, Debye):
    X=              0.0000    Y=             -0.5363    Z=              0.0000  Tot=              0.5363
 Quadrupole moment (field-independent basis, Debye-Ang):
   XX=            -13.3650   YY=            -14.3436   ZZ=            -13.3650
   XY=              0.0000   XZ=              0.0000   YZ=              0.0000
 Traceless Quadrupole moment (field-independent basis, Debye-Ang):
   XX=              0.3262   YY=             -0.6524   ZZ=              0.3262
   XY=              0.0000   XZ=              0.0000   YZ=              0.0000
 Octapole moment (field-independent basis, Debye-Ang**2):
  XXX=              0.5650  YYY=              0.1480  ZZZ=              0.0000  XYY=              0.0000
  XXY=              0.6832  XXZ=              0.0000  XZZ=             -0.5650  YZZ=              0.6832
  YYZ=              0.0000  XYZ=              0.0000
 Hexadecapole moment (field-independent basis, Debye-Ang**3):
 XXXX=            -24.2985 YYYY=            -21.9544 ZZZZ=            -24.2976 XXXY=             -0.0577
 XXXZ=              0.0000 YYYX=              0.0000 YYYZ=              0.0000 ZZZX=              0.0000
 ZZZY=              0.0000 XXYY=             -7.6328 XXZZ=             -8.0994 YYZZ=             -7.6327
 XXYZ=              0.0000 YYXZ=              0.0000 ZZXY=              0.0577
 N-N= 1.752628064564D+01 E-N=-8.398193910026D+02  KE= 3.342904963537D+02
 Symmetry A'   KE= 3.047704782345D+02
 Symmetry A"   KE= 2.952001811919D+01
 Calling FoFJK, ICntrl=      2127 FMM=F ISym2X=1 I1Cent= 0 IOpClX= 0 NMat=1 NMatS=1 NMatT=0.
 ***** Axes restored to original set *****
 -------------------------------------------------------------------
 Center     Atomic                   Forces (Hartrees/Bohr)
 Number     Number              X              Y              Z
 -------------------------------------------------------------------
      1       15           0.000000000   -0.000009979   -0.040143054
      2        1           0.000000000    0.020476871    0.013385321
      3        1          -0.017717640   -0.010233446    0.013378867
      4        1           0.017717640   -0.010233446    0.013378867
 -------------------------------------------------------------------
 Cartesian Forces:  Max     0.040143054 RMS     0.016845371

 GradGradGradGradGradGradGradGradGradGradGradGradGradGradGradGradGradGrad
 Berny optimization.
 Internal  Forces:  Max     0.024463337 RMS     0.016008142
 Search for a local minimum.
 Step number   1 out of a maximum of   20
 All quantities printed in internal units (Hartrees-Bohrs-Radians)
 Mixed Optimization -- RFO/linear search
 Second derivative matrix not updated -- first step.
 The second derivative matrix:
                          R1        R2        R3        A1        A2
           R1           0.20873
           R2           0.00000   0.20874
           R3           0.00000   0.00000   0.20874
           A1           0.00000   0.00000   0.00000   0.16000
           A2           0.00000   0.00000   0.00000   0.00000   0.16000
           A3           0.00000   0.00000   0.00000   0.00000   0.00000
           D1           0.00000   0.00000   0.00000   0.00000   0.00000
                          A3        D1
           A3           0.16000
           D1           0.00000   0.00230
 ITU=  0
     Eigenvalues ---    0.08058   0.16000   0.16000   0.20873   0.20874
     Eigenvalues ---    0.20874
 RFO step:  Lambda=-8.26664181D-03 EMin= 8.05780059D-02
 Linear search not attempted -- first point.
 Iteration  1 RMS(Cart)=  0.06442134 RMS(Int)=  0.00004649
 Iteration  2 RMS(Cart)=  0.00005126 RMS(Int)=  0.00000064
 Iteration  3 RMS(Cart)=  0.00000000 RMS(Int)=  0.00000064
 ClnCor:  largest displacement from symmetrization is 9.80D-05 for atom     4.
 Variable       Old X    -DE/DX   Delta X   Delta X   Delta X     New X
                                 (Linear)    (Quad)   (Total)
    R1        2.68530  -0.02446   0.00000  -0.11274  -0.11274   2.57257
    R2        2.68525  -0.02445   0.00000  -0.11265  -0.11267   2.57257
    R3        2.68525  -0.02445   0.00000  -0.11265  -0.11267   2.57257
    A1        1.62845   0.00010   0.00000   0.00130   0.00132   1.62977
    A2        1.62845   0.00023   0.00000   0.00138   0.00132   1.62977
    A3        1.62840   0.00024   0.00000   0.00145   0.00146   1.62986
    D1       -1.63197  -0.00013   0.00000  -0.00147  -0.00150  -1.63347
         Item               Value     Threshold  Converged?
 Maximum Force            0.024463     0.000450     NO 
 RMS     Force            0.016008     0.000300     NO 
 Maximum Displacement     0.093309     0.001800     NO 
 RMS     Displacement     0.064464     0.001200     NO 
 Predicted change in Energy=-4.290833D-03
 GradGradGradGradGradGradGradGradGradGradGradGradGradGradGradGradGradGrad

                          Input orientation:                          
 ---------------------------------------------------------------------
 Center     Atomic      Atomic             Coordinates (Angstroms)
 Number     Number       Type             X           Y           Z
 ---------------------------------------------------------------------
      1         15           0        0.000000    0.000011   -0.025148
      2          1           0        0.000000   -1.143823   -0.763322
      3          1           0        0.990622    0.571882   -0.763321
      4          1           0       -0.990622    0.571882   -0.763321
 ---------------------------------------------------------------------
                    Distance matrix (angstroms):
                    1          2          3          4
     1  P    0.000000
     2  H    1.361344   0.000000
     3  H    1.361348   1.981155   0.000000
     4  H    1.361348   1.981155   1.981245   0.000000
 Stoichiometry    H3P
 Framework group  CS[SG(HP),X(H2)]
 Deg. of freedom     4
 Full point group                 CS      NOp   2
 Largest Abelian subgroup         CS      NOp   2
 Largest concise Abelian subgroup CS      NOp   2
                         Standard orientation:                         
 ---------------------------------------------------------------------
 Center     Atomic      Atomic             Coordinates (Angstroms)
 Number     Number       Type             X           Y           Z
 ---------------------------------------------------------------------
      1         15           0        0.000000    0.123029    0.000000
      2          1           0       -1.143803   -0.615193    0.000000
      3          1           0        0.571902   -0.615120    0.990622
      4          1           0        0.571902   -0.615120   -0.990622
 ---------------------------------------------------------------------
 Rotational constants (GHZ):    145.2756530    145.2656995    127.7561651
 Standard basis: STO-3G (5D, 7F)
 There are     9 symmetry adapted basis functions of A'  symmetry.
 There are     3 symmetry adapted basis functions of A"  symmetry.
 Integral buffers will be    262144 words long.
 Raffenetti 1 integral format.
 Two-electron integral symmetry is turned on.
    12 basis functions,    36 primitive gaussians,    12 cartesian basis functions
     9 alpha electrons        9 beta electrons
       nuclear repulsion energy        18.2935244724 Hartrees.
 NAtoms=    4 NActive=    4 NUniq=    3 SFac= 1.78D+00 NAtFMM=   50 NAOKFM=F Big=F
 One-electron integrals computed using PRISM.
 NBasis=    12 RedAO= T  NBF=     9     3
 NBsUse=    12 1.00D-06 NBFU=     9     3
 Initial guess read from the read-write file.
 B after Tr=     0.000000    0.000000    0.000000
         Rot=    1.000000    0.000000    0.000000    0.000000 Ang=   0.00 deg.
 Initial guess orbital symmetries:
       Occupied  (A') (A') (A") (A') (A') (A') (A') (A") (A')
       Virtual   (A") (A') (A')
 Harris functional with IExCor=  205 diagonalized for initial guess.
 ExpMin= 1.69D-01 ExpMax= 4.68D+02 ExpMxC= 4.68D+02 IAcc=1 IRadAn=         1 AccDes= 0.00D+00
 HarFok:  IExCor=  205 AccDes= 0.00D+00 IRadAn=         1 IDoV= 1
 ScaDFX=  1.000000  1.000000  1.000000  1.000000
 FoFCou: FMM=F IPFlag=           0 FMFlag=      100000 FMFlg1=           0
         NFxFlg=           0 DoJE=T BraDBF=F KetDBF=T FulRan=T
         Omega=  0.000000  0.000000  1.000000  0.000000  0.000000 ICntrl=     500 IOpCl=  0
         NMat0=    1 NMatS0=    1 NMatT0=    0 NMatD0=    1 NMtDS0=    0 NMtDT0=    0
         I1Cent=           4 NGrid=           0.
 Petite list used in FoFCou.
 Requested convergence on RMS density matrix=1.00D-08 within 128 cycles.
 Requested convergence on MAX density matrix=1.00D-06.
 Requested convergence on             energy=1.00D-06.
 No special actions if energy rises.
 Keep R1 ints in memory in canonical form, NReq=822817.
 SCF Done:  E(RHF) =  -338.635752617     A.U. after    7 cycles
             Convg  =    0.9323D-09             -V/T =  2.0127
 Calling FoFJK, ICntrl=      2127 FMM=F ISym2X=1 I1Cent= 0 IOpClX= 0 NMat=1 NMatS=1 NMatT=0.
 ***** Axes restored to original set *****
 -------------------------------------------------------------------
 Center     Atomic                   Forces (Hartrees/Bohr)
 Number     Number              X              Y              Z
 -------------------------------------------------------------------
      1       15           0.000000000   -0.000006108    0.017761626
      2        1           0.000000000   -0.011129539   -0.005917600
      3        1           0.009629014    0.005567823   -0.005922013
      4        1          -0.009629014    0.005567823   -0.005922013
 -------------------------------------------------------------------
 Cartesian Forces:  Max     0.017761626 RMS     0.008123719

 GradGradGradGradGradGradGradGradGradGradGradGradGradGradGradGradGradGrad
 Berny optimization.
 Using GEDIIS/GDIIS optimizer.
 Internal  Forces:  Max     0.012560062 RMS     0.008301779
 Search for a local minimum.
 Step number   2 out of a maximum of   20
 All quantities printed in internal units (Hartrees-Bohrs-Radians)
 Mixed Optimization -- RFO/linear search
 Update second derivatives using D2CorX and points    1    2
 DE= -2.27D-03 DEPred=-4.29D-03 R= 5.29D-01
 SS=  1.41D+00  RLast= 1.95D-01 DXNew= 5.0454D-01 5.8564D-01
 Trust test= 5.29D-01 RLast= 1.95D-01 DXMaxT set to 5.05D-01
 The second derivative matrix:
                          R1        R2        R3        A1        A2
           R1           0.24872
           R2           0.03997   0.24869
           R3           0.03997   0.03994   0.24869
           A1           0.00291   0.00291   0.00291   0.16004
           A2           0.00566   0.00566   0.00566   0.00010   0.16023
           A3           0.00561   0.00560   0.00560   0.00010   0.00022
           D1          -0.00293  -0.00293  -0.00293  -0.00006  -0.00013
                          A3        D1
           A3           0.16021
           D1          -0.00013   0.00238
 ITU=  1  0
 Use linear search instead of GDIIS.
     Eigenvalues ---    0.08044   0.15937   0.16000   0.20873   0.20874
     Eigenvalues ---    0.32992
 RFO step:  Lambda=-3.96090684D-05 EMin= 8.04415318D-02
 Quartic linear search produced a step of -0.31226.
 Iteration  1 RMS(Cart)=  0.02493092 RMS(Int)=  0.00009869
 Iteration  2 RMS(Cart)=  0.00009578 RMS(Int)=  0.00002392
 Iteration  3 RMS(Cart)=  0.00000001 RMS(Int)=  0.00002392
 ClnCor:  largest displacement from symmetrization is 1.18D-04 for atom     4.
 Variable       Old X    -DE/DX   Delta X   Delta X   Delta X     New X
                                 (Linear)    (Quad)   (Total)
    R1        2.57257   0.01256   0.03520  -0.00044   0.03476   2.60733
    R2        2.57257   0.01256   0.03518  -0.00042   0.03473   2.60731
    R3        2.57257   0.01256   0.03518  -0.00042   0.03473   2.60731
    A1        1.62977   0.00087  -0.00041   0.00905   0.00862   1.63839
    A2        1.62977   0.00193  -0.00041   0.00911   0.00862   1.63839
    A3        1.62986   0.00190  -0.00045   0.00902   0.00857   1.63843
    D1       -1.63347  -0.00112   0.00047  -0.01022  -0.00983  -1.64330
         Item               Value     Threshold  Converged?
 Maximum Force            0.012560     0.000450     NO 
 RMS     Force            0.008302     0.000300     NO 
 Maximum Displacement     0.038127     0.001800     NO 
 RMS     Displacement     0.024967     0.001200     NO 
 Predicted change in Energy=-7.316324D-04
 GradGradGradGradGradGradGradGradGradGradGradGradGradGradGradGradGradGrad

                          Input orientation:                          
 ---------------------------------------------------------------------
 Center     Atomic      Atomic             Coordinates (Angstroms)
 Number     Number       Type             X           Y           Z
 ---------------------------------------------------------------------
      1         15           0        0.000000   -0.000006   -0.023165
      2          1           0        0.000000   -1.163999   -0.763976
      3          1           0        1.008042    0.581950   -0.763994
      4          1           0       -1.008042    0.581950   -0.763994
 ---------------------------------------------------------------------
                    Distance matrix (angstroms):
                    1          2          3          4
     1  P    0.000000
     2  H    1.379740   0.000000
     3  H    1.379727   2.016057   0.000000
     4  H    1.379727   2.016057   2.016084   0.000000
 Stoichiometry    H3P
 Framework group  CS[SG(HP),X(H2)]
 Deg. of freedom     4
 Full point group                 CS      NOp   2
 Largest Abelian subgroup         CS      NOp   2
 Largest concise Abelian subgroup CS      NOp   2
                         Standard orientation:                         
 ---------------------------------------------------------------------
 Center     Atomic      Atomic             Coordinates (Angstroms)
 Number     Number       Type             X           Y           Z
 ---------------------------------------------------------------------
      1         15           0        0.000000    0.123470    0.000000
      2          1           0       -1.163966   -0.617384    0.000000
      3          1           0        0.581983   -0.617337    1.008042
      4          1           0        0.581983   -0.617337   -1.008042
 ---------------------------------------------------------------------
 Rotational constants (GHZ):    141.9645529    141.9616405    123.3736984
 Standard basis: STO-3G (5D, 7F)
 There are     9 symmetry adapted basis functions of A'  symmetry.
 There are     3 symmetry adapted basis functions of A"  symmetry.
 Integral buffers will be    262144 words long.
 Raffenetti 1 integral format.
 Two-electron integral symmetry is turned on.
    12 basis functions,    36 primitive gaussians,    12 cartesian basis functions
     9 alpha electrons        9 beta electrons
       nuclear repulsion energy        18.0465769324 Hartrees.
 NAtoms=    4 NActive=    4 NUniq=    3 SFac= 1.78D+00 NAtFMM=   50 NAOKFM=F Big=F
 One-electron integrals computed using PRISM.
 NBasis=    12 RedAO= T  NBF=     9     3
 NBsUse=    12 1.00D-06 NBFU=     9     3
 Initial guess read from the read-write file.
 B after Tr=     0.000000    0.000000    0.000000
         Rot=    1.000000    0.000000    0.000000    0.000000 Ang=   0.00 deg.
 Initial guess orbital symmetries:
       Occupied  (A') (A') (A") (A') (A') (A') (A") (A') (A')
       Virtual   (A') (A") (A')
 Harris functional with IExCor=  205 diagonalized for initial guess.
 ExpMin= 1.69D-01 ExpMax= 4.68D+02 ExpMxC= 4.68D+02 IAcc=1 IRadAn=         1 AccDes= 0.00D+00
 HarFok:  IExCor=  205 AccDes= 0.00D+00 IRadAn=         1 IDoV= 1
 ScaDFX=  1.000000  1.000000  1.000000  1.000000
 FoFCou: FMM=F IPFlag=           0 FMFlag=      100000 FMFlg1=           0
         NFxFlg=           0 DoJE=T BraDBF=F KetDBF=T FulRan=T
         Omega=  0.000000  0.000000  1.000000  0.000000  0.000000 ICntrl=     500 IOpCl=  0
         NMat0=    1 NMatS0=    1 NMatT0=    0 NMatD0=    1 NMtDS0=    0 NMtDT0=    0
         I1Cent=           4 NGrid=           0.
 Petite list used in FoFCou.
 Requested convergence on RMS density matrix=1.00D-08 within 128 cycles.
 Requested convergence on MAX density matrix=1.00D-06.
 Requested convergence on             energy=1.00D-06.
 No special actions if energy rises.
 Keep R1 ints in memory in canonical form, NReq=822817.
 SCF Done:  E(RHF) =  -338.636410911     A.U. after    7 cycles
             Convg  =    0.5233D-09             -V/T =  2.0128
 Calling FoFJK, ICntrl=      2127 FMM=F ISym2X=1 I1Cent= 0 IOpClX= 0 NMat=1 NMatS=1 NMatT=0.
 ***** Axes restored to original set *****
 -------------------------------------------------------------------
 Center     Atomic                   Forces (Hartrees/Bohr)
 Number     Number              X              Y              Z
 -------------------------------------------------------------------
      1       15           0.000000000   -0.000010544    0.001300337
      2        1           0.000000000    0.000291499   -0.000428954
      3        1          -0.000249496   -0.000140478   -0.000435691
      4        1           0.000249496   -0.000140478   -0.000435691
 -------------------------------------------------------------------
 Cartesian Forces:  Max     0.001300337 RMS     0.000456762

 GradGradGradGradGradGradGradGradGradGradGradGradGradGradGradGradGradGrad
 Berny optimization.
 Using GEDIIS/GDIIS optimizer.
 Internal  Forces:  Max     0.000962246 RMS     0.000577022
 Search for a local minimum.
 Step number   3 out of a maximum of   20
 All quantities printed in internal units (Hartrees-Bohrs-Radians)
 Mixed Optimization -- En-DIIS/RFO-DIIS
 Update second derivatives using D2CorX and points    1    2    3
 DE= -6.58D-04 DEPred=-7.32D-04 R= 9.00D-01
 SS=  1.41D+00  RLast= 6.28D-02 DXNew= 8.4853D-01 1.8830D-01
 Trust test= 9.00D-01 RLast= 6.28D-02 DXMaxT set to 5.05D-01
 The second derivative matrix:
                          R1        R2        R3        A1        A2
           R1           0.25629
           R2           0.04751   0.25621
           R3           0.04751   0.04747   0.25621
           A1          -0.00090  -0.00090  -0.00090   0.15824
           A2           0.01325   0.01324   0.01324   0.00037   0.16431
           A3           0.01318   0.01317   0.01317   0.00037   0.00429
           D1          -0.01489  -0.01487  -0.01487  -0.00222  -0.00415
                          A3        D1
           A3           0.16427
           D1          -0.00413   0.00438
 ITU=  1  1  0
 Use linear search instead of GDIIS.
     Eigenvalues ---    0.08193   0.16000   0.16285   0.20873   0.20874
     Eigenvalues ---    0.35826
 RFO step:  Lambda=-1.69408753D-05 EMin= 8.19259340D-02
 Quartic linear search produced a step of -0.01999.
 Iteration  1 RMS(Cart)=  0.00480137 RMS(Int)=  0.00002047
 Iteration  2 RMS(Cart)=  0.00001651 RMS(Int)=  0.00001085
 Iteration  3 RMS(Cart)=  0.00000000 RMS(Int)=  0.00001085
 ClnCor:  largest displacement from symmetrization is 5.91D-05 for atom     4.
 Variable       Old X    -DE/DX   Delta X   Delta X   Delta X     New X
                                 (Linear)    (Quad)   (Total)
    R1        2.60733  -0.00002  -0.00069   0.00133   0.00063   2.60796
    R2        2.60731  -0.00001  -0.00069   0.00136   0.00068   2.60799
    R3        2.60731  -0.00001  -0.00069   0.00136   0.00068   2.60799
    A1        1.63839  -0.00042  -0.00017  -0.00561  -0.00581   1.63258
    A2        1.63839  -0.00095  -0.00017  -0.00568  -0.00581   1.63258
    A3        1.63843  -0.00096  -0.00017  -0.00575  -0.00592   1.63251
    D1       -1.64330   0.00057   0.00020   0.00646   0.00665  -1.63664
         Item               Value     Threshold  Converged?
 Maximum Force            0.000962     0.000450     NO 
 RMS     Force            0.000577     0.000300     NO 
 Maximum Displacement     0.007336     0.001800     NO 
 RMS     Displacement     0.004799     0.001200     NO 
 Predicted change in Energy=-8.689628D-06
 GradGradGradGradGradGradGradGradGradGradGradGradGradGradGradGradGradGrad

                          Input orientation:                          
 ---------------------------------------------------------------------
 Center     Atomic      Atomic             Coordinates (Angstroms)
 Number     Number       Type             X           Y           Z
 ---------------------------------------------------------------------
      1         15           0        0.000000   -0.000034   -0.019283
      2          1           0        0.000000   -1.161121   -0.765258
      3          1           0        1.005511    0.580539   -0.765290
      4          1           0       -1.005511    0.580539   -0.765290
 ---------------------------------------------------------------------
                    Distance matrix (angstroms):
                    1          2          3          4
     1  P    0.000000
     2  H    1.380073   0.000000
     3  H    1.380088   2.011077   0.000000
     4  H    1.380088   2.011077   2.011022   0.000000
 Stoichiometry    H3P
 Framework group  CS[SG(HP),X(H2)]
 Deg. of freedom     4
 Full point group                 CS      NOp   2
 Largest Abelian subgroup         CS      NOp   2
 Largest concise Abelian subgroup CS      NOp   2
                         Standard orientation:                         
 ---------------------------------------------------------------------
 Center     Atomic      Atomic             Coordinates (Angstroms)
 Number     Number       Type             X           Y           Z
 ---------------------------------------------------------------------
      1         15           0        0.000000    0.124333    0.000000
      2          1           0       -1.161107   -0.621612    0.000000
      3          1           0        0.580553   -0.621690    1.005511
      4          1           0        0.580553   -0.621690   -1.005511
 ---------------------------------------------------------------------
 Rotational constants (GHZ):    141.5275816    141.5216994    123.9887988
 Standard basis: STO-3G (5D, 7F)
 There are     9 symmetry adapted basis functions of A'  symmetry.
 There are     3 symmetry adapted basis functions of A"  symmetry.
 Integral buffers will be    262144 words long.
 Raffenetti 1 integral format.
 Two-electron integral symmetry is turned on.
    12 basis functions,    36 primitive gaussians,    12 cartesian basis functions
     9 alpha electrons        9 beta electrons
       nuclear repulsion energy        18.0441362250 Hartrees.
 NAtoms=    4 NActive=    4 NUniq=    3 SFac= 1.78D+00 NAtFMM=   50 NAOKFM=F Big=F
 One-electron integrals computed using PRISM.
 NBasis=    12 RedAO= T  NBF=     9     3
 NBsUse=    12 1.00D-06 NBFU=     9     3
 Initial guess read from the read-write file.
 B after Tr=     0.000000    0.000000    0.000000
         Rot=    1.000000    0.000000    0.000000    0.000000 Ang=   0.00 deg.
 Initial guess orbital symmetries:
       Occupied  (A') (A') (A") (A') (A') (A') (A") (A') (A')
       Virtual   (A') (A") (A')
 Requested convergence on RMS density matrix=1.00D-08 within 128 cycles.
 Requested convergence on MAX density matrix=1.00D-06.
 Requested convergence on             energy=1.00D-06.
 No special actions if energy rises.
 Keep R1 ints in memory in canonical form, NReq=822817.
 SCF Done:  E(RHF) =  -338.636414685     A.U. after    6 cycles
             Convg  =    0.1613D-08             -V/T =  2.0128
 Calling FoFJK, ICntrl=      2127 FMM=F ISym2X=1 I1Cent= 0 IOpClX= 0 NMat=1 NMatS=1 NMatT=0.
 ***** Axes restored to original set *****
 -------------------------------------------------------------------
 Center     Atomic                   Forces (Hartrees/Bohr)
 Number     Number              X              Y              Z
 -------------------------------------------------------------------
      1       15           0.000000000    0.000015333   -0.000931295
      2        1           0.000000000   -0.000053384    0.000303875
      3        1           0.000044399    0.000019025    0.000313710
      4        1          -0.000044399    0.000019025    0.000313710
 -------------------------------------------------------------------
 Cartesian Forces:  Max     0.000931295 RMS     0.000311479

 GradGradGradGradGradGradGradGradGradGradGradGradGradGradGradGradGradGrad
 Berny optimization.
 Using GEDIIS/GDIIS optimizer.
 Internal  Forces:  Max     0.000543002 RMS     0.000330537
 Search for a local minimum.
 Step number   4 out of a maximum of   20
 All quantities printed in internal units (Hartrees-Bohrs-Radians)
 Mixed Optimization -- En-DIIS/RFO-DIIS
 Swaping is turned off.
 Update second derivatives using D2CorX and points    1    2    3    4
 DE= -3.77D-06 DEPred=-8.69D-06 R= 4.34D-01
 Trust test= 4.34D-01 RLast= 1.22D-02 DXMaxT set to 5.05D-01
 The second derivative matrix:
                          R1        R2        R3        A1        A2
           R1           0.25794
           R2           0.04926   0.25805
           R3           0.04926   0.04930   0.25805
           A1           0.00298   0.00312   0.00312   0.12378
           A2           0.00700   0.00664   0.00664  -0.01621   0.18849
           A3           0.00674   0.00637   0.00637  -0.01635   0.02920
           D1          -0.00424  -0.00371  -0.00371  -0.02056  -0.04698
                          A3        D1
           A3           0.18994
           D1          -0.04788   0.03057
 ITU=  0  1  1  0
     Eigenvalues ---    0.09155   0.16000   0.20872   0.20874   0.22954
     Eigenvalues ---    0.35911
 En-DIIS/RFO-DIIS IScMMF=        0 using points:     4    3
 RFO step:  Lambda=-1.65449472D-06.
 DidBck=T Rises=F RFO-DIIS coefs:    0.63757    0.36243
 Iteration  1 RMS(Cart)=  0.00166218 RMS(Int)=  0.00000344
 Iteration  2 RMS(Cart)=  0.00000219 RMS(Int)=  0.00000260
 Iteration  3 RMS(Cart)=  0.00000000 RMS(Int)=  0.00000260
 ClnCor:  largest displacement from symmetrization is 3.30D-06 for atom     4.
 Variable       Old X    -DE/DX   Delta X   Delta X   Delta X     New X
                                  (DIIS)     (GDIIS)  (Total)
    R1        2.60796  -0.00012  -0.00023  -0.00022  -0.00045   2.60751
    R2        2.60799  -0.00013  -0.00025  -0.00024  -0.00049   2.60750
    R3        2.60799  -0.00013  -0.00025  -0.00024  -0.00049   2.60750
    A1        1.63258   0.00024   0.00211  -0.00004   0.00207   1.63465
    A2        1.63258   0.00052   0.00211  -0.00003   0.00207   1.63465
    A3        1.63251   0.00054   0.00215   0.00002   0.00217   1.63467
    D1       -1.63664  -0.00031  -0.00241   0.00004  -0.00237  -1.63901
         Item               Value     Threshold  Converged?
 Maximum Force            0.000543     0.000450     NO 
 RMS     Force            0.000331     0.000300     NO 
 Maximum Displacement     0.002728     0.001800     NO 
 RMS     Displacement     0.001661     0.001200     NO 
 Predicted change in Energy=-1.826203D-06
 GradGradGradGradGradGradGradGradGradGradGradGradGradGradGradGradGradGrad

                          Input orientation:                          
 ---------------------------------------------------------------------
 Center     Atomic      Atomic             Coordinates (Angstroms)
 Number     Number       Type             X           Y           Z
 ---------------------------------------------------------------------
      1         15           0        0.000000   -0.000006   -0.020726
      2          1           0        0.000000   -1.162036   -0.764789
      3          1           0        1.006347    0.580982   -0.764803
      4          1           0       -1.006347    0.580982   -0.764803
 ---------------------------------------------------------------------
                    Distance matrix (angstroms):
                    1          2          3          4
     1  P    0.000000
     2  H    1.379834   0.000000
     3  H    1.379830   2.012671   0.000000
     4  H    1.379830   2.012671   2.012694   0.000000
 Stoichiometry    H3P
 Framework group  CS[SG(HP),X(H2)]
 Deg. of freedom     4
 Full point group                 CS      NOp   2
 Largest Abelian subgroup         CS      NOp   2
 Largest concise Abelian subgroup CS      NOp   2
                         Standard orientation:                         
 ---------------------------------------------------------------------
 Center     Atomic      Atomic             Coordinates (Angstroms)
 Number     Number       Type             X           Y           Z
 ---------------------------------------------------------------------
      1         15           0        0.000000    0.124012    0.000000
      2          1           0       -1.162012   -0.620078    0.000000
      3          1           0        0.581006   -0.620051    1.006347
      4          1           0        0.581006   -0.620051   -1.006347
 ---------------------------------------------------------------------
 Rotational constants (GHZ):    141.7090319    141.7066074    123.7892738
 Standard basis: STO-3G (5D, 7F)
 There are     9 symmetry adapted basis functions of A'  symmetry.
 There are     3 symmetry adapted basis functions of A"  symmetry.
 Integral buffers will be    262144 words long.
 Raffenetti 1 integral format.
 Two-electron integral symmetry is turned on.
    12 basis functions,    36 primitive gaussians,    12 cartesian basis functions
     9 alpha electrons        9 beta electrons
       nuclear repulsion energy        18.0466513943 Hartrees.
 NAtoms=    4 NActive=    4 NUniq=    3 SFac= 1.78D+00 NAtFMM=   50 NAOKFM=F Big=F
 One-electron integrals computed using PRISM.
 NBasis=    12 RedAO= T  NBF=     9     3
 NBsUse=    12 1.00D-06 NBFU=     9     3
 Initial guess read from the read-write file.
 B after Tr=     0.000000    0.000000    0.000000
         Rot=    1.000000    0.000000    0.000000    0.000000 Ang=   0.00 deg.
 Initial guess orbital symmetries:
       Occupied  (A') (A') (A') (A") (A') (A') (A') (A") (A')
       Virtual   (A") (A') (A')
 Requested convergence on RMS density matrix=1.00D-08 within 128 cycles.
 Requested convergence on MAX density matrix=1.00D-06.
 Requested convergence on             energy=1.00D-06.
 No special actions if energy rises.
 Keep R1 ints in memory in canonical form, NReq=822817.
 SCF Done:  E(RHF) =  -338.636416509     A.U. after    5 cycles
             Convg  =    0.6678D-08             -V/T =  2.0128
 Calling FoFJK, ICntrl=      2127 FMM=F ISym2X=1 I1Cent= 0 IOpClX= 0 NMat=1 NMatS=1 NMatT=0.
 ***** Axes restored to original set *****
 -------------------------------------------------------------------
 Center     Atomic                   Forces (Hartrees/Bohr)
 Number     Number              X              Y              Z
 -------------------------------------------------------------------
      1       15           0.000000000   -0.000004730   -0.000003471
      2        1           0.000000000    0.000003558    0.000003178
      3        1          -0.000003375    0.000000586    0.000000146
      4        1           0.000003375    0.000000586    0.000000146
 -------------------------------------------------------------------
 Cartesian Forces:  Max     0.000004730 RMS     0.000002593

 GradGradGradGradGradGradGradGradGradGradGradGradGradGradGradGradGradGrad
 Berny optimization.
 Using GEDIIS/GDIIS optimizer.
 Internal  Forces:  Max     0.000006426 RMS     0.000003318
 Search for a local minimum.
 Step number   5 out of a maximum of   20
 All quantities printed in internal units (Hartrees-Bohrs-Radians)
 Mixed Optimization -- En-DIIS/RFO-DIIS
 Swaping is turned off.
 Update second derivatives using D2CorX and points    1    2    3    4    5
 DE= -1.82D-06 DEPred=-1.83D-06 R= 9.99D-01
 SS=  1.41D+00  RLast= 4.42D-03 DXNew= 8.4853D-01 1.3268D-02
 Trust test= 9.99D-01 RLast= 4.42D-03 DXMaxT set to 5.05D-01
 The second derivative matrix:
                          R1        R2        R3        A1        A2
           R1           0.25755
           R2           0.04894   0.25782
           R3           0.04894   0.04908   0.25782
           A1           0.00317   0.00316   0.00316   0.12408
           A2           0.00772   0.00705   0.00705  -0.01591   0.18827
           A3           0.00719   0.00646   0.00646  -0.01557   0.03002
           D1          -0.00485  -0.00416  -0.00416  -0.02047  -0.04625
                          A3        D1
           A3           0.19193
           D1          -0.04773   0.02978
 ITU=  1  0  1  1  0
     Eigenvalues ---    0.09128   0.16002   0.20871   0.20874   0.23097
     Eigenvalues ---    0.35861
 En-DIIS/RFO-DIIS IScMMF=        0 using points:     5    4    3
 RFO step:  Lambda= 0.00000000D+00.
 DidBck=F Rises=F RFO-DIIS coefs:    1.02755   -0.01703   -0.01051
 Iteration  1 RMS(Cart)=  0.00002476 RMS(Int)=  0.00000007
 Iteration  2 RMS(Cart)=  0.00000000 RMS(Int)=  0.00000007
 ClnCor:  largest displacement from symmetrization is 1.52D-07 for atom     4.
 Variable       Old X    -DE/DX   Delta X   Delta X   Delta X     New X
                                  (DIIS)     (GDIIS)  (Total)
    R1        2.60751   0.00000  -0.00001  -0.00001  -0.00002   2.60749
    R2        2.60750   0.00000  -0.00001   0.00000   0.00000   2.60750
    R3        2.60750   0.00000  -0.00001   0.00000   0.00000   2.60750
    A1        1.63465   0.00000   0.00000   0.00002   0.00001   1.63466
    A2        1.63465   0.00000   0.00000   0.00002   0.00001   1.63466
    A3        1.63467  -0.00001   0.00000  -0.00003  -0.00004   1.63464
    D1       -1.63901   0.00000   0.00000  -0.00002  -0.00001  -1.63902
         Item               Value     Threshold  Converged?
 Maximum Force            0.000006     0.000450     YES
 RMS     Force            0.000003     0.000300     YES
 Maximum Displacement     0.000037     0.001800     YES
 RMS     Displacement     0.000025     0.001200     YES
 Predicted change in Energy=-1.822347D-10
 Optimization completed.
    -- Stationary point found.
                           ----------------------------
                           !   Optimized Parameters   !
                           ! (Angstroms and Degrees)  !
 --------------------------                            --------------------------
 ! Name  Definition              Value          Derivative Info.                !
 --------------------------------------------------------------------------------
 ! R1    R(1,2)                  1.3798         -DE/DX =    0.0                 !
 ! R2    R(1,3)                  1.3798         -DE/DX =    0.0                 !
 ! R3    R(1,4)                  1.3798         -DE/DX =    0.0                 !
 ! A1    A(2,1,3)               93.6584         -DE/DX =    0.0                 !
 ! A2    A(2,1,4)               93.6584         -DE/DX =    0.0                 !
 ! A3    A(3,1,4)               93.66           -DE/DX =    0.0                 !
 ! D1    D(2,1,4,3)            -93.9082         -DE/DX =    0.0                 !
 --------------------------------------------------------------------------------
 GradGradGradGradGradGradGradGradGradGradGradGradGradGradGradGradGradGrad

                          Input orientation:                          
 ---------------------------------------------------------------------
 Center     Atomic      Atomic             Coordinates (Angstroms)
 Number     Number       Type             X           Y           Z
 ---------------------------------------------------------------------
      1         15           0        0.000000   -0.000006   -0.020726
      2          1           0        0.000000   -1.162036   -0.764789
      3          1           0        1.006347    0.580982   -0.764803
      4          1           0       -1.006347    0.580982   -0.764803
 ---------------------------------------------------------------------
                    Distance matrix (angstroms):
                    1          2          3          4
     1  P    0.000000
     2  H    1.379834   0.000000
     3  H    1.379830   2.012671   0.000000
     4  H    1.379830   2.012671   2.012694   0.000000
 Stoichiometry    H3P
 Framework group  CS[SG(HP),X(H2)]
 Deg. of freedom     4
 Full point group                 CS      NOp   2
 Largest Abelian subgroup         CS      NOp   2
 Largest concise Abelian subgroup CS      NOp   2
                         Standard orientation:                         
 ---------------------------------------------------------------------
 Center     Atomic      Atomic             Coordinates (Angstroms)
 Number     Number       Type             X           Y           Z
 ---------------------------------------------------------------------
      1         15           0        0.000000    0.124012    0.000000
      2          1           0       -1.162012   -0.620078    0.000000
      3          1           0        0.581006   -0.620051    1.006347
      4          1           0        0.581006   -0.620051   -1.006347
 ---------------------------------------------------------------------
 Rotational constants (GHZ):    141.7090319    141.7066074    123.7892738

 **********************************************************************

            Population analysis using the SCF density.

 **********************************************************************

 Orbital symmetries:
       Occupied  (A') (A') (A") (A') (A') (A') (A") (A') (A')
       Virtual   (A') (A") (A')
 The electronic state is 1-A'.
 Alpha  occ. eigenvalues --  -78.93314  -7.24707  -5.07078  -5.07078  -5.06824
 Alpha  occ. eigenvalues --   -0.81271  -0.46111  -0.46110  -0.29861
 Alpha virt. eigenvalues --    0.49243   0.49244   0.64964
          Condensed to atoms (all electrons):
              1          2          3          4
     1  P   13.745702   0.302034   0.302035   0.302035
     2  H    0.302034   0.847387  -0.016678  -0.016678
     3  H    0.302035  -0.016678   0.847386  -0.016677
     4  H    0.302035  -0.016678  -0.016677   0.847386
 Mulliken atomic charges:
              1
     1  P    0.348195
     2  H   -0.116065
     3  H   -0.116065
     4  H   -0.116065
 Sum of Mulliken atomic charges =   0.00000
 Mulliken charges with hydrogens summed into heavy atoms:
              1
     1  P    0.000000
 Sum of Mulliken charges with hydrogens summed into heavy atoms =   0.00000
 Electronic spatial extent (au):  <R**2>=             49.8767
 Charge=              0.0000 electrons
 Dipole moment (field-independent basis, Debye):
    X=              0.0000    Y=             -0.5998    Z=              0.0000  Tot=              0.5998
 Quadrupole moment (field-independent basis, Debye-Ang):
   XX=            -13.3221   YY=            -14.3363   ZZ=            -13.3221
   XY=              0.0000   XZ=              0.0000   YZ=              0.0000
 Traceless Quadrupole moment (field-independent basis, Debye-Ang):
   XX=              0.3381   YY=             -0.6761   ZZ=              0.3381
   XY=              0.0000   XZ=              0.0000   YZ=              0.0000
 Octapole moment (field-independent basis, Debye-Ang**2):
  XXX=              0.5710  YYY=              0.0313  ZZZ=              0.0000  XYY=              0.0000
  XXY=              0.6467  XXZ=              0.0000  XZZ=             -0.5710  YZZ=              0.6467
  YYZ=              0.0000  XYZ=              0.0000
 Hexadecapole moment (field-independent basis, Debye-Ang**3):
 XXXX=            -23.6438 YYYY=            -21.4074 ZZZZ=            -23.6441 XXXY=             -0.0695
 XXXZ=              0.0000 YYYX=             -0.0001 YYYZ=              0.0000 ZZZX=              0.0000
 ZZZY=              0.0000 XXYY=             -7.4423 XXZZ=             -7.8813 YYZZ=             -7.4423
 XXYZ=              0.0000 YYXZ=              0.0000 ZZXY=              0.0694
 N-N= 1.804665139435D+01 E-N=-8.408767308304D+02  KE= 3.343576879329D+02
 Symmetry A'   KE= 3.048142809751D+02
 Symmetry A"   KE= 2.954340695779D+01
 1|1|UNPC-DESKTOP-RA5CP68|FOpt|RHF|STO-3G|H3P1|FELIPE|07-Nov-2023|0||# 
 rhf/sto-3g opt freq||PH3-EXPGEOM-RHF-sto3g||0,1|P,0.,-0.0000061258,-0.
 0207264697|H,0.,-1.1620359959,-0.7647885564|H,1.0063470284,0.580982136
 2,-0.7648029283|H,-1.0063470284,0.5809821362,-0.7648029283||Version=IA
 32W-G09RevB.01|State=1-A'|HF=-338.6364165|RMSD=6.678e-009|RMSF=2.593e-
 006|Dipole=0.,0.0000055,-0.2359652|Quadrupole=0.251346,0.2513475,-0.50
 26935,0.,0.,-0.0000123|PG=CS [SG(H1P1),X(H2)]||@


 ACCORDING TO HEN3RY, LIFE IS MUCH LIKE A SEWER........
 YOU GET OUT OF IT JUST WHAT YOU PUT INTO IT...........
                         TOM LEHRER - (THE 3 IS SILENT)
 Job cpu time:  0 days  0 hours  0 minutes  4.0 seconds.
 File lengths (MBytes):  RWF=      5 Int=      0 D2E=      0 Chk=      1 Scr=      1
 Normal termination of Gaussian 09 at Tue Nov 07 17:51:08 2023.
 Link1:  Proceeding to internal job step number  2.
 ---------------------------------------------------------------
 #N Geom=AllCheck Guess=TCheck SCRF=Check GenChk RHF/STO-3G Freq
 ---------------------------------------------------------------
 1/10=4,29=7,30=1,38=1,40=1/1,3;
 2/12=2,40=1/2;
 3/6=3,11=1,14=-4,16=1,25=1,30=1,70=2,71=2,116=1/1,2,3;
 4/5=101/1;
 5/5=2,98=1/2;
 8/6=4,10=90,11=11/1;
 10/13=10,15=4/2;
 11/6=3,8=1,9=11,15=111,16=1/1,2,10;
 10/6=1/2;
 6/7=2,8=2,9=2,10=2,18=1,28=1/1;
 7/8=1,10=1,25=1/1,2,3,16;
 1/10=4,30=1/3;
 99//99;
 ---------------------
 PH3-EXPGEOM-RHF-sto3g
 ---------------------
 Redundant internal coordinates taken from checkpoint file:
 PH3-OPTGEOM-RHF-sto3g.chk
 Charge =  0 Multiplicity = 1
 P,0,0.,-0.0000061258,-0.0207264697
 H,0,0.,-1.1620359959,-0.7647885564
 H,0,1.0063470284,0.5809821362,-0.7648029283
 H,0,-1.0063470284,0.5809821362,-0.7648029283
 Recover connectivity data from disk.

 GradGradGradGradGradGradGradGradGradGradGradGradGradGradGradGradGradGrad
 Berny optimization.
 Initialization pass.
                           ----------------------------
                           !    Initial Parameters    !
                           ! (Angstroms and Degrees)  !
 --------------------------                            --------------------------
 ! Name  Definition              Value          Derivative Info.                !
 --------------------------------------------------------------------------------
 ! R1    R(1,2)                  1.3798         calculate D2E/DX2 analytically  !
 ! R2    R(1,3)                  1.3798         calculate D2E/DX2 analytically  !
 ! R3    R(1,4)                  1.3798         calculate D2E/DX2 analytically  !
 ! A1    A(2,1,3)               93.6584         calculate D2E/DX2 analytically  !
 ! A2    A(2,1,4)               93.6584         calculate D2E/DX2 analytically  !
 ! A3    A(3,1,4)               93.66           calculate D2E/DX2 analytically  !
 ! D1    D(2,1,4,3)            -93.9082         calculate D2E/DX2 analytically  !
 --------------------------------------------------------------------------------
 Trust Radius=3.00D-01 FncErr=1.00D-07 GrdErr=1.00D-07
 Number of steps in this run=      2 maximum allowed number of steps=      2.
 GradGradGradGradGradGradGradGradGradGradGradGradGradGradGradGradGradGrad

                          Input orientation:                          
 ---------------------------------------------------------------------
 Center     Atomic      Atomic             Coordinates (Angstroms)
 Number     Number       Type             X           Y           Z
 ---------------------------------------------------------------------
      1         15           0        0.000000   -0.000006   -0.020726
      2          1           0        0.000000   -1.162036   -0.764789
      3          1           0        1.006347    0.580982   -0.764803
      4          1           0       -1.006347    0.580982   -0.764803
 ---------------------------------------------------------------------
                    Distance matrix (angstroms):
                    1          2          3          4
     1  P    0.000000
     2  H    1.379834   0.000000
     3  H    1.379830   2.012671   0.000000
     4  H    1.379830   2.012671   2.012694   0.000000
 Stoichiometry    H3P
 Framework group  CS[SG(HP),X(H2)]
 Deg. of freedom     4
 Full point group                 CS      NOp   2
 Largest Abelian subgroup         CS      NOp   2
 Largest concise Abelian subgroup CS      NOp   2
                         Standard orientation:                         
 ---------------------------------------------------------------------
 Center     Atomic      Atomic             Coordinates (Angstroms)
 Number     Number       Type             X           Y           Z
 ---------------------------------------------------------------------
      1         15           0        0.000000    0.124012    0.000000
      2          1           0       -1.162012   -0.620078    0.000000
      3          1           0        0.581006   -0.620051    1.006347
      4          1           0        0.581006   -0.620051   -1.006347
 ---------------------------------------------------------------------
 Rotational constants (GHZ):    141.7090319    141.7066074    123.7892738
 Standard basis: STO-3G (5D, 7F)
 There are     9 symmetry adapted basis functions of A'  symmetry.
 There are     3 symmetry adapted basis functions of A"  symmetry.
 Integral buffers will be    262144 words long.
 Raffenetti 1 integral format.
 Two-electron integral symmetry is turned on.
    12 basis functions,    36 primitive gaussians,    12 cartesian basis functions
     9 alpha electrons        9 beta electrons
       nuclear repulsion energy        18.0466513943 Hartrees.
 NAtoms=    4 NActive=    4 NUniq=    3 SFac= 1.78D+00 NAtFMM=   50 NAOKFM=F Big=F
 One-electron integrals computed using PRISM.
 NBasis=    12 RedAO= T  NBF=     9     3
 NBsUse=    12 1.00D-06 NBFU=     9     3
 Initial guess read from the checkpoint file:  PH3-OPTGEOM-RHF-sto3g.chk
 B after Tr=     0.000000    0.000000    0.000000
         Rot=    1.000000    0.000000    0.000000    0.000000 Ang=   0.00 deg.
 Initial guess orbital symmetries:
       Occupied  (A') (A') (A") (A') (A') (A') (A") (A') (A')
       Virtual   (A') (A") (A')
 Requested convergence on RMS density matrix=1.00D-08 within 128 cycles.
 Requested convergence on MAX density matrix=1.00D-06.
 Requested convergence on             energy=1.00D-06.
 No special actions if energy rises.
 Keep R1 ints in memory in canonical form, NReq=822817.
 SCF Done:  E(RHF) =  -338.636416509     A.U. after    1 cycles
             Convg  =    0.1160D-08             -V/T =  2.0128
 Range of M.O.s used for correlation:     1    12
 NBasis=    12 NAE=     9 NBE=     9 NFC=     0 NFV=     0
 NROrb=     12 NOA=     9 NOB=     9 NVA=     3 NVB=     3
          Differentiating once with respect to electric field.
                with respect to dipole field.
          Electric field/nuclear overlap derivatives assumed to be zero.
          Keep R1 ints in memory in canonical form, NReq=803316.
          There are     3 degrees of freedom in the 1st order CPHF.  IDoFFX=0.
      3 vectors produced by pass  0 Test12= 9.00D-16 3.33D-08 XBig12= 2.41D+00 1.05D+00.
 AX will form     3 AO Fock derivatives at one time.
      3 vectors produced by pass  1 Test12= 9.00D-16 3.33D-08 XBig12= 4.99D-03 6.83D-02.
      3 vectors produced by pass  2 Test12= 9.00D-16 3.33D-08 XBig12= 8.89D-06 1.63D-03.
      3 vectors produced by pass  3 Test12= 9.00D-16 3.33D-08 XBig12= 9.53D-08 2.63D-04.
      3 vectors produced by pass  4 Test12= 9.00D-16 3.33D-08 XBig12= 5.24D-11 5.27D-06.
      3 vectors produced by pass  5 Test12= 9.00D-16 3.33D-08 XBig12= 2.11D-13 3.60D-07.
 Inverted reduced A of dimension    18 with in-core refinement.
 End of Minotr Frequency-dependent properties file   721 does not exist.
 End of Minotr Frequency-dependent properties file   722 does not exist.
 Symmetrizing basis deriv contribution to polar:
 IMax=3 JMax=2 DiffMx= 0.00D+00
 G2DrvN: will do     5 centers at a time, making    1 passes doing MaxLOS=1.
 Calling FoFCou, ICntrl=  3107 FMM=F I1Cent=   0 AccDes= 0.00D+00.
 FoFDir/FoFCou used for L=0 through L=1.
 End of G2Drv Frequency-dependent properties file   721 does not exist.
 End of G2Drv Frequency-dependent properties file   722 does not exist.
          IDoAtm=1111
          Differentiating once with respect to electric field.
                with respect to dipole field.
          Differentiating once with respect to nuclear coordinates.
          Keep R1 ints in memory in canonical form, NReq=803365.
          There are    12 degrees of freedom in the 1st order CPHF.  IDoFFX=4.
 Will reuse    3 saved solutions.
      9 vectors produced by pass  0 Test12= 2.25D-16 8.33D-09 XBig12= 9.85D-03 8.58D-02.
 AX will form     9 AO Fock derivatives at one time.
      9 vectors produced by pass  1 Test12= 2.25D-16 8.33D-09 XBig12= 1.43D-05 2.55D-03.
      8 vectors produced by pass  2 Test12= 2.25D-16 8.33D-09 XBig12= 2.58D-09 3.70D-05.
      1 vectors produced by pass  3 Test12= 2.25D-16 8.33D-09 XBig12= 1.62D-13 3.94D-07.
 Inverted reduced A of dimension    27 with in-core refinement.
 Isotropic polarizability for W=    0.000000        8.87 Bohr**3.
 End of Minotr Frequency-dependent properties file   721 does not exist.
 End of Minotr Frequency-dependent properties file   722 does not exist.

 **********************************************************************

            Population analysis using the SCF density.

 **********************************************************************

 Orbital symmetries:
       Occupied  (A') (A') (A") (A') (A') (A') (A") (A') (A')
       Virtual   (A') (A") (A')
 The electronic state is 1-A'.
 Alpha  occ. eigenvalues --  -78.93314  -7.24707  -5.07078  -5.07078  -5.06824
 Alpha  occ. eigenvalues --   -0.81271  -0.46111  -0.46110  -0.29861
 Alpha virt. eigenvalues --    0.49243   0.49244   0.64964
          Condensed to atoms (all electrons):
              1          2          3          4
     1  P   13.745702   0.302034   0.302035   0.302035
     2  H    0.302034   0.847387  -0.016678  -0.016678
     3  H    0.302035  -0.016678   0.847386  -0.016677
     4  H    0.302035  -0.016678  -0.016677   0.847386
 Mulliken atomic charges:
              1
     1  P    0.348195
     2  H   -0.116065
     3  H   -0.116065
     4  H   -0.116065
 Sum of Mulliken atomic charges =   0.00000
 Mulliken charges with hydrogens summed into heavy atoms:
              1
     1  P    0.000000
 Sum of Mulliken charges with hydrogens summed into heavy atoms =   0.00000
 APT atomic charges:
              1
     1  P    0.356291
     2  H   -0.118763
     3  H   -0.118764
     4  H   -0.118764
 Sum of APT charges=   0.00000
 APT Atomic charges with hydrogens summed into heavy atoms:
              1
     1  P    0.000000
     2  H    0.000000
     3  H    0.000000
     4  H    0.000000
 Sum of APT charges=   0.00000
 Electronic spatial extent (au):  <R**2>=             49.8767
 Charge=              0.0000 electrons
 Dipole moment (field-independent basis, Debye):
    X=              0.0000    Y=             -0.5998    Z=              0.0000  Tot=              0.5998
 Quadrupole moment (field-independent basis, Debye-Ang):
   XX=            -13.3221   YY=            -14.3363   ZZ=            -13.3221
   XY=              0.0000   XZ=              0.0000   YZ=              0.0000
 Traceless Quadrupole moment (field-independent basis, Debye-Ang):
   XX=              0.3381   YY=             -0.6761   ZZ=              0.3381
   XY=              0.0000   XZ=              0.0000   YZ=              0.0000
 Octapole moment (field-independent basis, Debye-Ang**2):
  XXX=              0.5710  YYY=              0.0313  ZZZ=              0.0000  XYY=              0.0000
  XXY=              0.6467  XXZ=              0.0000  XZZ=             -0.5710  YZZ=              0.6467
  YYZ=              0.0000  XYZ=              0.0000
 Hexadecapole moment (field-independent basis, Debye-Ang**3):
 XXXX=            -23.6438 YYYY=            -21.4074 ZZZZ=            -23.6441 XXXY=             -0.0695
 XXXZ=              0.0000 YYYX=             -0.0001 YYYZ=              0.0000 ZZZX=              0.0000
 ZZZY=              0.0000 XXYY=             -7.4423 XXZZ=             -7.8813 YYZZ=             -7.4423
 XXYZ=              0.0000 YYXZ=              0.0000 ZZXY=              0.0694
 N-N= 1.804665139435D+01 E-N=-8.408767308415D+02  KE= 3.343576879381D+02
 Symmetry A'   KE= 3.048142809855D+02
 Symmetry A"   KE= 2.954340695259D+01
  Exact polarizability:  10.315   0.000   5.991   0.000   0.000  10.315
 Approx polarizability:   8.746   0.000   6.042   0.000   0.000   8.746
 Calling FoFJK, ICntrl=    100127 FMM=F ISym2X=1 I1Cent= 0 IOpClX= 0 NMat=1 NMatS=1 NMatT=0.
 Full mass-weighted force constant matrix:
 Low frequencies ---   -0.0020    0.0032    0.0040    4.7954    4.8652    6.9898
 Low frequencies --- 1427.4906 1542.9600 1542.9745
 Harmonic frequencies (cm**-1), IR intensities (KM/Mole), Raman scattering
 activities (A**4/AMU), depolarization ratios for plane and unpolarized
 incident light, reduced masses (AMU), force constants (mDyne/A),
 and normal coordinates:
                     1                      2                      3
                    A'                     A'                     A"
 Frequencies --  1427.4906              1542.9600              1542.9745
 Red. masses --     1.0738                 1.0250                 1.0250
 Frc consts  --     1.2892                 1.4378                 1.4378
 IR Inten    --    78.0048                38.9877                38.9857
 Raman Activ --    21.9490                24.4958                24.4964
 Depolar (P) --     0.6040                 0.7500                 0.7500
 Depolar (U) --     0.7531                 0.8571                 0.8571
  Atom  AN      X      Y      Z        X      Y      Z        X      Y      Z
     1  15     0.00   0.05   0.00     0.02   0.00   0.00     0.00   0.00  -0.02
     2   1     0.32  -0.48   0.00     0.23  -0.31   0.00     0.00   0.00   0.72
     3   1    -0.16  -0.48  -0.28    -0.48   0.16   0.41    -0.41  -0.27   0.01
     4   1    -0.16  -0.48   0.28    -0.48   0.16  -0.41     0.41   0.27   0.01
                     4                      5                      6
                    A'                     A'                     A"
 Frequencies --  3040.2947              3090.8950              3090.9131
 Red. masses --     1.0333                 1.0417                 1.0417
 Frc consts  --     5.6272                 5.8634                 5.8634
 IR Inten    --    19.0801                37.2228                37.2211
 Raman Activ --    89.5838                55.0105                55.0093
 Depolar (P) --     0.0221                 0.7500                 0.7500
 Depolar (U) --     0.0432                 0.8571                 0.8571
  Atom  AN      X      Y      Z        X      Y      Z        X      Y      Z
     1  15     0.00  -0.03   0.00     0.03   0.00   0.00     0.00   0.00   0.03
     2   1     0.49   0.30   0.00    -0.69  -0.44   0.00     0.00   0.00   0.00
     3   1    -0.25   0.30  -0.43    -0.17   0.22  -0.30    -0.30   0.38  -0.52
     4   1    -0.25   0.30   0.43    -0.17   0.22   0.30     0.30  -0.38  -0.52

 -------------------
 - Thermochemistry -
 -------------------
 Temperature   298.150 Kelvin.  Pressure   1.00000 Atm.
 Atom     1 has atomic number 15 and mass  30.97376
 Atom     2 has atomic number  1 and mass   1.00783
 Atom     3 has atomic number  1 and mass   1.00783
 Atom     4 has atomic number  1 and mass   1.00783
 Molecular mass:    33.99724 amu.
 Principal axes and moments of inertia in atomic units:
                           1         2         3
     Eigenvalues --    12.73554  12.73576  14.57914
           X            0.00000   1.00000  -0.00006
           Y            0.00000   0.00006   1.00000
           Z            1.00000   0.00000   0.00000
 This molecule is an asymmetric top.
 Rotational symmetry number  1.
 Rotational temperatures (Kelvin)      6.80095     6.80084     5.94094
 Rotational constants (GHZ):         141.70903   141.70661   123.78927
 Zero-point vibrational energy      82156.7 (Joules/Mol)
                                   19.63592 (Kcal/Mol)
 Vibrational temperatures:   2053.84  2219.97  2219.99  4374.30  4447.10
          (Kelvin)           4447.13
 
 Zero-point correction=                           0.031292 (Hartree/Particle)
 Thermal correction to Energy=                    0.034139
 Thermal correction to Enthalpy=                  0.035083
 Thermal correction to Gibbs Free Energy=         0.010348
 Sum of electronic and zero-point Energies=           -338.605125
 Sum of electronic and thermal Energies=              -338.602277
 Sum of electronic and thermal Enthalpies=            -338.601333
 Sum of electronic and thermal Free Energies=         -338.626068
 
                     E (Thermal)             CV                S
                      KCal/Mol        Cal/Mol-Kelvin    Cal/Mol-Kelvin
 Total                   21.423              6.187             52.059
 Electronic               0.000              0.000              0.000
 Translational            0.889              2.981             36.502
 Rotational               0.889              2.981             15.522
 Vibrational             19.645              0.226              0.036
                       Q            Log10(Q)             Ln(Q)
 Total Bot       0.173816D-04         -4.759909        -10.960096
 Total V=0       0.429838D+10          9.633305         22.181504
 Vib (Bot)       0.405263D-14        -14.392263        -33.139411
 Vib (V=0)       0.100219D+01          0.000951          0.002189
 Electronic      0.100000D+01          0.000000          0.000000
 Translational   0.779149D+07          6.891621         15.868543
 Rotational      0.550470D+03          2.740733          6.310772
 ***** Axes restored to original set *****
 -------------------------------------------------------------------
 Center     Atomic                   Forces (Hartrees/Bohr)
 Number     Number              X              Y              Z
 -------------------------------------------------------------------
      1       15           0.000000000   -0.000004731   -0.000003471
      2        1           0.000000000    0.000003558    0.000003177
      3        1          -0.000003375    0.000000586    0.000000147
      4        1           0.000003375    0.000000586    0.000000147
 -------------------------------------------------------------------
 Cartesian Forces:  Max     0.000004731 RMS     0.000002593

 GradGradGradGradGradGradGradGradGradGradGradGradGradGradGradGradGradGrad
 Berny optimization.
 Internal  Forces:  Max     0.000006426 RMS     0.000003318
 Search for a local minimum.
 Step number   1 out of a maximum of    2
 All quantities printed in internal units (Hartrees-Bohrs-Radians)
 Second derivative matrix not updated -- analytic derivatives used.
 The second derivative matrix:
                          R1        R2        R3        A1        A2
           R1           0.34925
           R2          -0.00295   0.34926
           R3          -0.00295  -0.00295   0.34926
           A1           0.00327   0.00327   0.00178   0.07234
           A2           0.00708   0.00428   0.00717  -0.01865   0.28384
           A3           0.00428   0.00708   0.00717  -0.01865  -0.00928
           D1          -0.00407  -0.00407  -0.00277  -0.07010  -0.00007
                          A3        D1
           A3           0.28384
           D1          -0.00007   0.07042
 ITU=  0
     Eigenvalues ---    0.13847   0.27547   0.29299   0.34666   0.35228
     Eigenvalues ---    0.35233
 Angle between quadratic step and forces=   8.20 degrees.
 Linear search not attempted -- first point.
 Iteration  1 RMS(Cart)=  0.00001460 RMS(Int)=  0.00000000
 Iteration  2 RMS(Cart)=  0.00000000 RMS(Int)=  0.00000000
 ClnCor:  largest displacement from symmetrization is 1.05D-11 for atom     4.
 Variable       Old X    -DE/DX   Delta X   Delta X   Delta X     New X
                                 (Linear)    (Quad)   (Total)
    R1        2.60751   0.00000   0.00000  -0.00001  -0.00001   2.60749
    R2        2.60750   0.00000   0.00000  -0.00001  -0.00001   2.60749
    R3        2.60750   0.00000   0.00000  -0.00001  -0.00001   2.60749
    A1        1.63465   0.00000   0.00000   0.00001   0.00001   1.63465
    A2        1.63465   0.00000   0.00000   0.00001   0.00001   1.63465
    A3        1.63467  -0.00001   0.00000  -0.00002  -0.00002   1.63465
    D1       -1.63901   0.00000   0.00000   0.00000   0.00000  -1.63901
         Item               Value     Threshold  Converged?
 Maximum Force            0.000006     0.000450     YES
 RMS     Force            0.000003     0.000300     YES
 Maximum Displacement     0.000024     0.001800     YES
 RMS     Displacement     0.000015     0.001200     YES
 Predicted change in Energy=-1.231719D-10
 Optimization completed.
    -- Stationary point found.
                           ----------------------------
                           !   Optimized Parameters   !
                           ! (Angstroms and Degrees)  !
 --------------------------                            --------------------------
 ! Name  Definition              Value          Derivative Info.                !
 --------------------------------------------------------------------------------
 ! R1    R(1,2)                  1.3798         -DE/DX =    0.0                 !
 ! R2    R(1,3)                  1.3798         -DE/DX =    0.0                 !
 ! R3    R(1,4)                  1.3798         -DE/DX =    0.0                 !
 ! A1    A(2,1,3)               93.6584         -DE/DX =    0.0                 !
 ! A2    A(2,1,4)               93.6584         -DE/DX =    0.0                 !
 ! A3    A(3,1,4)               93.66           -DE/DX =    0.0                 !
 ! D1    D(2,1,4,3)            -93.9082         -DE/DX =    0.0                 !
 --------------------------------------------------------------------------------
 GradGradGradGradGradGradGradGradGradGradGradGradGradGradGradGradGradGrad

 1|1|UNPC-DESKTOP-RA5CP68|Freq|RHF|STO-3G|H3P1|FELIPE|07-Nov-2023|0||#N
  Geom=AllCheck Guess=TCheck SCRF=Check GenChk RHF/STO-3G Freq||PH3-EXP
 GEOM-RHF-sto3g||0,1|P,0.,-0.0000061258,-0.0207264697|H,0.,-1.162035995
 9,-0.7647885564|H,1.0063470284,0.5809821362,-0.7648029283|H,-1.0063470
 284,0.5809821362,-0.7648029283||Version=IA32W-G09RevB.01|State=1-A'|HF
 =-338.6364165|RMSD=1.160e-009|RMSF=2.593e-006|ZeroPoint=0.0312918|Ther
 mal=0.0341393|Dipole=0.,0.0000055,-0.2359652|DipoleDeriv=0.2740014,0.,
 0.,0.,0.2740067,-0.0000013,0.,-0.0000013,0.5208643,-0.1193992,0.,0.,0.
 ,-0.0632735,0.0191901,0.,-0.1886083,-0.1736174,-0.0773011,0.0243052,-0
 .0166229,0.024306,-0.1053666,-0.0095944,0.1633351,0.0943048,-0.1736235
 ,-0.0773011,-0.0243052,0.0166229,-0.024306,-0.1053666,-0.0095944,-0.16
 33351,0.0943048,-0.1736235|Polar=10.3149216,0.,10.3147377,0.,0.0000589
 ,5.9908609|PolarDeriv=0.,-1.8729979,0.,4.848304,0.,0.,-1.8730408,0.,1.
 8734147,0.,4.84824,0.0000095,3.6561327,0.,3.6560539,0.,0.0000728,9.420
 5159,0.,-2.0808112,0.,-1.3704038,0.,0.,0.1136569,0.,-6.5454692,0.,-1.8
 617475,0.0268407,-0.4190927,0.,-2.018299,0.,-3.3823939,-3.1401159,5.12
 7814,1.9769046,0.4422884,-1.7389501,-0.2127831,-0.0232277,0.879692,2.3
 427201,2.3360272,-0.2127498,-1.4932462,-0.0134251,-1.61852,-0.6924623,
 -0.8188774,2.9292497,1.6911605,-3.1402,-5.127814,1.9769046,-0.4422884,
 -1.7389501,0.2127831,0.0232277,0.879692,-2.3427201,2.3360272,0.2127498
 ,-1.4932462,-0.0134251,-1.61852,0.6924623,-0.8188774,-2.9292497,1.6911
 605,-3.1402|HyperPolar=0.,8.5446239,0.,-8.5450935,-8.5992962,0.,-8.599
 3003,0.,0.0003659,0.9846443|PG=CS [SG(H1P1),X(H2)]|NImag=0||0.42437065
 ,0.,0.42435665,0.,-0.00000091,0.42735345,-0.04784724,0.,0.,0.04605276,
 0.,-0.23506305,-0.11855273,0.,0.26216362,0.,-0.18115018,-0.14244686,0.
 ,0.13985923,0.12481190,-0.18826171,-0.08106573,0.10267468,0.00089724,0
 .00104547,0.00038227,0.20813699,-0.08106462,-0.09464680,0.05927682,-0.
 02606965,-0.01355029,0.02064548,0.09357727,0.10007635,0.15688509,0.090
 57554,-0.14245330,-0.01768757,-0.01065325,0.00881748,-0.12112724,-0.06
 993026,0.12481780,-0.18826171,0.08106573,-0.10267468,0.00089724,-0.001
 04547,-0.00038227,-0.02077252,0.01355700,-0.01807029,0.20813699,0.0810
 6462,-0.09464680,0.05927682,0.02606965,-0.01355029,0.02064548,-0.01355
 700,0.00812074,-0.00999204,-0.09357727,0.10007635,-0.15688509,0.090575
 54,-0.14245330,0.01768757,-0.01065325,0.00881748,0.01807029,-0.0099920
 4,0.00881802,0.12112724,-0.06993026,0.12481780||0.,0.00000473,0.000003
 47,0.,-0.00000356,-0.00000318,0.00000337,-0.00000059,-0.00000015,-0.00
 000337,-0.00000059,-0.00000015|||@


 ACCORDING TO HEN3RY, LIFE IS MUCH LIKE A SEWER........
 YOU GET OUT OF IT JUST WHAT YOU PUT INTO IT...........
                         TOM LEHRER - (THE 3 IS SILENT)
 Job cpu time:  0 days  0 hours  0 minutes  1.0 seconds.
 File lengths (MBytes):  RWF=      5 Int=      0 D2E=      0 Chk=      1 Scr=      1
 Normal termination of Gaussian 09 at Tue Nov 07 17:51:09 2023.
