 Entering Link 1 = C:\G09W\l1.exe PID=     14576.
  
 Copyright (c) 1988,1990,1992,1993,1995,1998,2003,2009,2010,
            Gaussian, Inc.  All Rights Reserved.
  
 This is part of the Gaussian(R) 09 program.  It is based on
 the Gaussian(R) 03 system (copyright 2003, Gaussian, Inc.),
 the Gaussian(R) 98 system (copyright 1998, Gaussian, Inc.),
 the Gaussian(R) 94 system (copyright 1995, Gaussian, Inc.),
 the Gaussian 92(TM) system (copyright 1992, Gaussian, Inc.),
 the Gaussian 90(TM) system (copyright 1990, Gaussian, Inc.),
 the Gaussian 88(TM) system (copyright 1988, Gaussian, Inc.),
 the Gaussian 86(TM) system (copyright 1986, Carnegie Mellon
 University), and the Gaussian 82(TM) system (copyright 1983,
 Carnegie Mellon University). Gaussian is a federally registered
 trademark of Gaussian, Inc.
  
 This software contains proprietary and confidential information,
 including trade secrets, belonging to Gaussian, Inc.
  
 This software is provided under written license and may be
 used, copied, transmitted, or stored only in accord with that
 written license.
  
 The following legend is applicable only to US Government
 contracts under FAR:
  
                    RESTRICTED RIGHTS LEGEND
  
 Use, reproduction and disclosure by the US Government is
 subject to restrictions as set forth in subparagraphs (a)
 and (c) of the Commercial Computer Software - Restricted
 Rights clause in FAR 52.227-19.
  
 Gaussian, Inc.
 340 Quinnipiac St., Bldg. 40, Wallingford CT 06492
  
  
 ---------------------------------------------------------------
 Warning -- This program may not be used in any manner that
 competes with the business of Gaussian, Inc. or will provide
 assistance to any competitor of Gaussian, Inc.  The licensee
 of this program is prohibited from giving any competitor of
 Gaussian, Inc. access to this program.  By using this program,
 the user acknowledges that Gaussian, Inc. is engaged in the
 business of creating and licensing software in the field of
 computational chemistry and represents and warrants to the
 licensee that it is not a competitor of Gaussian, Inc. and that
 it will not use this program in any manner prohibited above.
 ---------------------------------------------------------------
  

 Cite this work as:
 Gaussian 09, Revision B.01,
 M. J. Frisch, G. W. Trucks, H. B. Schlegel, G. E. Scuseria, 
 M. A. Robb, J. R. Cheeseman, G. Scalmani, V. Barone, B. Mennucci, 
 G. A. Petersson, H. Nakatsuji, M. Caricato, X. Li, H. P. Hratchian, 
 A. F. Izmaylov, J. Bloino, G. Zheng, J. L. Sonnenberg, M. Hada, 
 M. Ehara, K. Toyota, R. Fukuda, J. Hasegawa, M. Ishida, T. Nakajima, 
 Y. Honda, O. Kitao, H. Nakai, T. Vreven, J. A. Montgomery, Jr., 
 J. E. Peralta, F. Ogliaro, M. Bearpark, J. J. Heyd, E. Brothers, 
 K. N. Kudin, V. N. Staroverov, T. Keith, R. Kobayashi, J. Normand, 
 K. Raghavachari, A. Rendell, J. C. Burant, S. S. Iyengar, J. Tomasi, 
 M. Cossi, N. Rega, J. M. Millam, M. Klene, J. E. Knox, J. B. Cross, 
 V. Bakken, C. Adamo, J. Jaramillo, R. Gomperts, R. E. Stratmann, 
 O. Yazyev, A. J. Austin, R. Cammi, C. Pomelli, J. W. Ochterski, 
 R. L. Martin, K. Morokuma, V. G. Zakrzewski, G. A. Voth, 
 P. Salvador, J. J. Dannenberg, S. Dapprich, A. D. Daniels, 
 O. Farkas, J. B. Foresman, J. V. Ortiz, J. Cioslowski, 
 and D. J. Fox, Gaussian, Inc., Wallingford CT, 2010.
 
 ******************************************
 Gaussian 09:  IA32W-G09RevB.01 12-Aug-2010
                07-Nov-2023 
 ******************************************
 %chk=PH3-EXPGEOM-ROHF-S1.chk
 %mem=6MW
 %nproc=1
 Will use up to    1 processors via shared memory.
 ----------------------
 # rohf/sto-3g pop=full
 ----------------------
 1/38=1/1;
 2/12=2,17=6,18=5,40=1/2;
 3/6=3,11=2,16=1,25=1,30=1,116=101/1,2,3;
 4//1;
 5/5=2,38=5/2;
 6/7=3,28=1/1;
 99/5=1,9=1/99;
 -------------------
 PH3-EXPGEOM-ROHF-S1
 -------------------
 Symbolic Z-matrix:
 Charge =  0 Multiplicity = 3
 P1                    0.        0.        0. 
 H2                    0.       -1.1932   -0.7717 
 H3                    1.0333    0.5966   -0.7717 
 H4                   -1.0333    0.5966   -0.7717 
 
                          Input orientation:                          
 ---------------------------------------------------------------------
 Center     Atomic      Atomic             Coordinates (Angstroms)
 Number     Number       Type             X           Y           Z
 ---------------------------------------------------------------------
      1         15           0        0.000000    0.000000    0.000000
      2          1           0        0.000000   -1.193200   -0.771700
      3          1           0        1.033300    0.596600   -0.771700
      4          1           0       -1.033300    0.596600   -0.771700
 ---------------------------------------------------------------------
                    Distance matrix (angstroms):
                    1          2          3          4
     1  P    0.000000
     2  H    1.421002   0.000000
     3  H    1.420972   2.066662   0.000000
     4  H    1.420972   2.066662   2.066600   0.000000
 Stoichiometry    H3P(3)
 Framework group  CS[SG(HP),X(H2)]
 Deg. of freedom     4
 Full point group                 CS      NOp   2
 Largest Abelian subgroup         CS      NOp   2
 Largest concise Abelian subgroup CS      NOp   2
                         Standard orientation:                         
 ---------------------------------------------------------------------
 Center     Atomic      Atomic             Coordinates (Angstroms)
 Number     Number       Type             X           Y           Z
 ---------------------------------------------------------------------
      1         15           0        0.000000    0.128617    0.000000
      2          1           0       -1.193200   -0.643083    0.000000
      3          1           0        0.596600   -0.643083    1.033300
      4          1           0        0.596600   -0.643083   -1.033300
 ---------------------------------------------------------------------
 Rotational constants (GHZ):    133.2559896    133.2499140    117.4090990
 Standard basis: STO-3G (5D, 7F)
 There are     9 symmetry adapted basis functions of A'  symmetry.
 There are     3 symmetry adapted basis functions of A"  symmetry.
 Integral buffers will be    262144 words long.
 Raffenetti 2 integral format.
 Two-electron integral symmetry is turned on.
    12 basis functions,    36 primitive gaussians,    12 cartesian basis functions
    10 alpha electrons        8 beta electrons
       nuclear repulsion energy        17.5262806456 Hartrees.
 NAtoms=    4 NActive=    4 NUniq=    3 SFac= 1.78D+00 NAtFMM=   50 NAOKFM=F Big=F
 One-electron integrals computed using PRISM.
 NBasis=    12 RedAO= T  NBF=     9     3
 NBsUse=    12 1.00D-06 NBFU=     9     3
 Harris functional with IExCor=  205 diagonalized for initial guess.
 ExpMin= 1.69D-01 ExpMax= 4.68D+02 ExpMxC= 4.68D+02 IAcc=1 IRadAn=         1 AccDes= 0.00D+00
 HarFok:  IExCor=  205 AccDes= 0.00D+00 IRadAn=         1 IDoV= 1
 ScaDFX=  1.000000  1.000000  1.000000  1.000000
 FoFCou: FMM=F IPFlag=           0 FMFlag=      100000 FMFlg1=           0
         NFxFlg=           0 DoJE=T BraDBF=F KetDBF=T FulRan=T
         Omega=  0.000000  0.000000  1.000000  0.000000  0.000000 ICntrl=     500 IOpCl=  0
         NMat0=    1 NMatS0=    1 NMatT0=    0 NMatD0=    1 NMtDS0=    0 NMtDT0=    0
         I1Cent=           4 NGrid=           0.
 Petite list used in FoFCou.
 Initial guess orbital symmetries:
       Occupied  (A') (A') (A") (A') (A') (A') (A') (A") (A') (A")
       Virtual   (A') (A')
 The electronic state of the initial guess is 3-A".
 Requested convergence on RMS density matrix=1.00D-08 within 128 cycles.
 Requested convergence on MAX density matrix=1.00D-06.
 Requested convergence on             energy=1.00D-06.
 No special actions if energy rises.
 Keep R1 and R2 ints in memory in canonical form, NReq=825905.
 SCF Done:  E(ROHF) =  -338.275796988     A.U. after   11 cycles
             Convg  =    0.4653D-08             -V/T =  2.0102
 <Sx>= 0.0000 <Sy>= 0.0000 <Sz>= 1.0000 <S**2>= 2.0000 S= 1.0000
 <L.S>= 0.000000000000E+00
 Annihilation of the first spin contaminant:
 S**2 before annihilation     2.0000,   after     2.0000

 **********************************************************************

            Population analysis using the SCF density.

 **********************************************************************

 Orbital symmetries:
       Occupied  (A') (A') (A') (A') (A") (A') (A') (A") (A') (A")
       Virtual   (A') (A')
 The electronic state is 3-A".
 Alpha  occ. eigenvalues --  -78.93028  -7.24497  -5.07469  -5.07048  -5.06744
 Alpha  occ. eigenvalues --   -0.74709  -0.42877  -0.39678  -0.10341   0.21618
 Alpha virt. eigenvalues --    0.45732   0.61486
     Molecular Orbital Coefficients:
                           1         2         3         4         5
                           O         O         O         O         O
     Eigenvalues --   -78.93028  -7.24497  -5.07469  -5.07048  -5.06744
   1 1   P  1S          0.99403  -0.35619  -0.00049  -0.00204   0.00000
   2        2S          0.01800   1.04240   0.00149   0.00598   0.00000
   3        2PX        -0.00001  -0.00102   0.97968  -0.04520   0.00000
   4        2PY        -0.00016  -0.00219   0.04527   0.97941   0.00000
   5        2PZ         0.00000   0.00000   0.00000   0.00000   0.98144
   6        3S         -0.00321   0.05855  -0.00084  -0.01315   0.00000
   7        3PX         0.00000  -0.00019   0.06858  -0.00334   0.00000
   8        3PY         0.00061  -0.00865   0.00309   0.06929   0.00000
   9        3PZ         0.00000   0.00000   0.00000   0.00000   0.06632
  10 2   H  1S          0.00078  -0.01084   0.01517   0.01003   0.00000
  11 3   H  1S          0.00078  -0.01091  -0.00681   0.01110  -0.01219
  12 4   H  1S          0.00078  -0.01091  -0.00681   0.01110   0.01219
                           6         7         8         9        10
                           O         O         O         O         O
     Eigenvalues --    -0.74709  -0.42877  -0.39678  -0.10341   0.21618
   1 1   P  1S          0.07481  -0.00952   0.00000   0.04841   0.00000
   2        2S         -0.26573   0.03217   0.00000  -0.15757   0.00000
   3        2PX         0.00875   0.19931   0.00000   0.01819   0.00000
   4        2PY         0.06193   0.01681   0.00000  -0.24984   0.00000
   5        2PZ         0.00000   0.00000  -0.21419   0.00000  -0.27914
   6        3S          0.69198  -0.11264   0.00000   0.65448   0.00000
   7        3PX        -0.01957  -0.53180   0.00000  -0.04747   0.00000
   8        3PY        -0.14493  -0.04960   0.00000   0.73084   0.00000
   9        3PZ         0.00000   0.00000   0.58945   0.00000   1.02562
  10 2   H  1S          0.25416   0.56638   0.00000  -0.17746   0.00000
  11 3   H  1S          0.18962  -0.25969   0.44225  -0.25622  -0.73257
  12 4   H  1S          0.18962  -0.25969  -0.44225  -0.25622   0.73257
                          11        12
                           V         V
     Eigenvalues --     0.45732   0.61486
   1 1   P  1S         -0.00184   0.05460
   2        2S          0.00596  -0.16067
   3        2PX        -0.29164  -0.00244
   4        2PY        -0.00396   0.24256
   5        2PZ         0.00000   0.00000
   6        3S         -0.02451   0.97575
   7        3PX         1.05521   0.01089
   8        3PY         0.01461  -0.91237
   9        3PZ         0.00000   0.00000
  10 2   H  1S          0.82588  -0.66740
  11 3   H  1S         -0.40015  -0.69501
  12 4   H  1S         -0.40015  -0.69501
     Alpha Density Matrix:
                           1         2         3         4         5
   1 1   P  1S          1.12300
   2        2S         -0.38122   1.18344
   3        2PX        -0.00040   0.00135   1.00196
   4        2PY        -0.00901   0.02709  -0.00056   1.02783
   5        2PZ         0.00000   0.00000   0.00000   0.00000   1.08702
   6        3S          0.06050  -0.22974  -0.00478  -0.13560   0.00000
   7        3PX         0.00134  -0.00455  -0.03969   0.00154   0.00000
   8        3PY         0.02855  -0.08684   0.00204  -0.12438   0.00000
   9        3PZ         0.00000   0.00000   0.00000   0.00000  -0.34746
  10 2   H  1S          0.00964  -0.03255   0.12631   0.08014   0.00000
  11 3   H  1S          0.00889  -0.02968  -0.06193   0.08197   0.09780
  12 4   H  1S          0.00889  -0.02968  -0.06193   0.08197  -0.09780
                           6         7         8         9        10
   6        3S          0.92348
   7        3PX         0.01527   0.29016
   8        3PY         0.38220  -0.00550   0.56248
   9        3PZ         0.00000   0.00000   0.00000   1.40375
  10 2   H  1S         -0.00484  -0.29674  -0.19378   0.00000   0.41732
  11 3   H  1S         -0.00801   0.14605  -0.20102  -0.49146  -0.05329
  12 4   H  1S         -0.00801   0.14605  -0.20102   0.49146  -0.05329
                          11        12
  11 3   H  1S          0.90173
  12 4   H  1S         -0.56307   0.90173
     Beta Density Matrix:
                           1         2         3         4         5
   1 1   P  1S          1.12066
   2        2S         -0.37360   1.15861
   3        2PX        -0.00128   0.00421   1.00163
   4        2PY         0.00308  -0.01228   0.00398   0.96541
   5        2PZ         0.00000   0.00000   0.00000   0.00000   1.00910
   6        3S          0.02882  -0.12661  -0.01668   0.02791   0.00000
   7        3PX         0.00364  -0.01203  -0.03883  -0.01032   0.00000
   8        3PY        -0.00683   0.02832  -0.01125   0.05821   0.00000
   9        3PZ         0.00000   0.00000   0.00000   0.00000  -0.06117
  10 2   H  1S          0.01823  -0.06052   0.12953   0.03580   0.00000
  11 3   H  1S          0.02130  -0.07005  -0.05727   0.01796  -0.10669
  12 4   H  1S          0.02130  -0.07005  -0.05727   0.01796   0.10669
                           6         7         8         9        10
   6        3S          0.49514
   7        3PX         0.04634   0.28791
   8        3PY        -0.09612   0.02919   0.02835
   9        3PZ         0.00000   0.00000   0.00000   0.35185
  10 2   H  1S          0.11130  -0.30516  -0.06409   0.00000   0.38583
  11 3   H  1S          0.15968   0.13389  -0.01376   0.25988  -0.09876
  12 4   H  1S          0.15968   0.13389  -0.01376  -0.25988  -0.09876
                          11        12
  11 3   H  1S          0.29942
  12 4   H  1S         -0.09205   0.29942
    Full Mulliken population analysis:
                           1         2         3         4         5
   1 1   P  1S          2.24367
   2        2S         -0.24577   2.34204
   3        2PX         0.00000   0.00000   2.00359
   4        2PY         0.00000   0.00000   0.00000   1.99324
   5        2PZ         0.00000   0.00000   0.00000   0.00000   2.09612
   6        3S          0.00124  -0.08843   0.00000   0.00000   0.00000
   7        3PX         0.00000   0.00000  -0.02061   0.00000   0.00000
   8        3PY         0.00000   0.00000   0.00000  -0.01737   0.00000
   9        3PZ         0.00000   0.00000   0.00000   0.00000  -0.10723
  10 2   H  1S          0.00019  -0.00532  -0.00629  -0.00184   0.00000
  11 3   H  1S          0.00021  -0.00570  -0.00146  -0.00159  -0.00019
  12 4   H  1S          0.00021  -0.00570  -0.00146  -0.00159  -0.00019
                           6         7         8         9        10
   6        3S          1.41862
   7        3PX         0.00000   0.57806
   8        3PY         0.00000   0.00000   0.59082
   9        3PZ         0.00000   0.00000   0.00000   1.75560
  10 2   H  1S          0.04102   0.22101   0.06124   0.00000   0.80315
  11 3   H  1S          0.05844   0.05140   0.05101  -0.07364  -0.01623
  12 4   H  1S          0.05844   0.05140   0.05101  -0.07364  -0.01623
                          11        12
  11 3   H  1S          1.20115
  12 4   H  1S         -0.06994   1.20115
     Gross orbital populations:
                         Total     Alpha     Beta      Spin
   1 1   P  1S          1.99975   0.99991   0.99984   0.00007
   2        2S          1.99113   0.99705   0.99408   0.00297
   3        2PX         1.97377   0.98692   0.98685   0.00007
   4        2PY         1.97085   0.99131   0.97955   0.01176
   5        2PZ         1.98851   1.00000   0.98851   0.01149
   6        3S          1.48935   0.85928   0.63007   0.22921
   7        3PX         0.88126   0.44233   0.43893   0.00340
   8        3PY         0.73671   0.67133   0.06538   0.60595
   9        3PZ         1.50108   1.00000   0.50108   0.49892
  10 2   H  1S          1.08070   0.55288   0.52782   0.02507
  11 3   H  1S          1.19344   0.74949   0.44395   0.30554
  12 4   H  1S          1.19344   0.74949   0.44395   0.30554
          Condensed to atoms (all electrons):
              1          2          3          4
     1  P   14.065456   0.310011   0.078473   0.078473
     2  H    0.310011   0.803155  -0.016232  -0.016232
     3  H    0.078473  -0.016232   1.201147  -0.069944
     4  H    0.078473  -0.016232  -0.069944   1.201147
 Mulliken atomic charges:
              1
     1  P    0.467587
     2  H   -0.080701
     3  H   -0.193443
     4  H   -0.193443
 Sum of Mulliken atomic charges =   0.00000
 Mulliken charges with hydrogens summed into heavy atoms:
              1
     1  P    0.000000
 Sum of Mulliken charges with hydrogens summed into heavy atoms =   0.00000
          Atomic-Atomic Spin Densities.
              1          2          3          4
     1  P    1.882651  -0.016131  -0.251336  -0.251336
     2  H   -0.016131   0.031490   0.004854   0.004854
     3  H   -0.251336   0.004854   0.602313  -0.050288
     4  H   -0.251336   0.004854  -0.050288   0.602313
 Mulliken atomic spin densities:
              1
     1  P    1.363848
     2  H    0.025067
     3  H    0.305543
     4  H    0.305543
 Sum of Mulliken atomic spin densities =   2.00000
 Electronic spatial extent (au):  <R**2>=             51.4290
 Charge=              0.0000 electrons
 Dipole moment (field-independent basis, Debye):
    X=             -0.7540    Y=              1.5614    Z=              0.0000  Tot=              1.7339
 Quadrupole moment (field-independent basis, Debye-Ang):
   XX=            -13.4089   YY=            -12.5796   ZZ=            -15.5198
   XY=              0.6149   XZ=              0.0000   YZ=              0.0000
 Traceless Quadrupole moment (field-independent basis, Debye-Ang):
   XX=              0.4272   YY=              1.2565   ZZ=             -1.6837
   XY=              0.6149   XZ=              0.0000   YZ=              0.0000
 Octapole moment (field-independent basis, Debye-Ang**2):
  XXX=             -0.4272  YYY=              2.7653  ZZZ=              0.0000  XYY=             -0.7023
  XXY=              1.4026  XXZ=              0.0000  XZZ=             -1.5282  YZZ=              1.9210
  YYZ=              0.0000  XYZ=              0.0000
 Hexadecapole moment (field-independent basis, Debye-Ang**3):
 XXXX=            -24.1456 YYYY=            -18.9143 ZZZZ=            -28.3706 XXXY=              0.7270
 XXXZ=              0.0000 YYYX=              0.6588 YYYZ=              0.0000 ZZZX=              0.0000
 ZZZY=              0.0000 XXYY=             -7.2381 XXZZ=             -9.2488 YYZZ=             -8.4557
 XXYZ=              0.0000 YYXZ=              0.0000 ZZXY=              0.9895
 N-N= 1.752628064564D+01 E-N=-1.249760892114D+03  KE= 5.002834259447D+02
 Symmetry A'   KE= 4.535116313314D+02
 Symmetry A"   KE= 4.677179461328D+01
 Orbital energies and kinetic energies (alpha):
                                 1                 2
   1         O               -78.930285        102.692065
   2         O                -7.244965         18.041520
   3         O                -5.074689         13.618783
   4         O                -5.070476         13.612419
   5         O                -5.067440         13.635790
   6         O                -0.747094          1.403597
   7         O                -0.428773          1.180373
   8         O                -0.396775          1.228577
   9         O                -0.103413          1.865360
  10         O                 0.216178          2.178695
  11         V                 0.457323          2.257253
  12         V                 0.614857          2.651772
 Total kinetic energy from orbitals= 3.389143566705D+02
                          Isotropic Fermi Contact Couplings
        Atom                 a.u.       MegaHertz       Gauss      10(-4) cm-1
     1  P(31)              1.08097     978.87039     349.28528     326.51602
     2  H(1)               0.01260      28.16791      10.05101       9.39580
     3  H(1)               0.18197     406.69388     145.11848     135.65848
     4  H(1)               0.18197     406.69388     145.11848     135.65848
 --------------------------------------------------------
       Center         ----  Spin Dipole Couplings  ----
                      3XX-RR        3YY-RR        3ZZ-RR
 --------------------------------------------------------
     1   Atom       -2.071206      0.742662      1.328544
     2   Atom        0.033113     -0.004129     -0.028984
     3   Atom       -0.015837     -0.002329      0.018167
     4   Atom       -0.015837     -0.002329      0.018167
 --------------------------------------------------------
                        XY            XZ            YZ
 --------------------------------------------------------
     1   Atom       -0.214550      0.000000      0.000000
     2   Atom        0.042192      0.000000      0.000000
     3   Atom       -0.017396      0.022342     -0.018234
     4   Atom       -0.017396     -0.022342      0.018234
 --------------------------------------------------------


 ---------------------------------------------------------------------------------
              Anisotropic Spin Dipole Couplings in Principal Axis System
 ---------------------------------------------------------------------------------

       Atom             a.u.   MegaHertz   Gauss  10(-4) cm-1        Axes

              Baa    -2.0875  -451.277  -161.027  -150.530  0.9971  0.0756  0.0000
     1 P(31)  Bbb     0.7589   164.068    58.543    54.727 -0.0756  0.9971  0.0000
              Bcc     1.3285   287.210   102.484    95.803  0.0000  0.0000  1.0000
 
              Baa    -0.0316   -16.874    -6.021    -5.629 -0.5460  0.8378  0.0000
     2 H(1)   Bbb    -0.0290   -15.464    -5.518    -5.158  0.0000  0.0000  1.0000
              Bcc     0.0606    32.339    11.539    10.787  0.8378  0.5460  0.0000
 
              Baa    -0.0300   -16.027    -5.719    -5.346  0.8855  0.3806 -0.2664
     3 H(1)   Bbb    -0.0124    -6.606    -2.357    -2.203 -0.1621  0.7906  0.5905
              Bcc     0.0424    22.632     8.076     7.549  0.4354 -0.4797  0.7618
 
              Baa    -0.0300   -16.027    -5.719    -5.346  0.8855  0.3806  0.2664
     4 H(1)   Bbb    -0.0124    -6.606    -2.357    -2.203 -0.1621  0.7906 -0.5905
              Bcc     0.0424    22.632     8.076     7.549 -0.4354  0.4797  0.7618
 

 ---------------------------------------------------------------------------------

 1|1|UNPC-DESKTOP-FN8L32V|SP|ROHF|STO-3G|H3P1(3)|FELIP|07-Nov-2023|0||#
  rohf/sto-3g pop=full||PH3-EXPGEOM-ROHF-S1||0,3|P,0,0.,0.,0.|H,0,0.,-1
 .1932,-0.7717|H,0,1.0333,0.5966,-0.7717|H,0,-1.0333,0.5966,-0.7717||Ve
 rsion=IA32W-G09RevB.01|State=3-A"|HF=-338.275797|RMSD=4.653e-009|Dipol
 e=0.,-0.2966577,0.614303|Quadrupole=-1.2518023,0.3176107,0.9341916,0.,
 0.,0.4571931|PG=CS [SG(H1P1),X(H2)]||@


 IT WAS AN ACT OF DESPARATION. FOR SIX YEARS I HAD STRUGGLED WITH THE
 BLACKBODY THEORY. I KNEW THE PROBLEM WAS FUNDAMENTAL, AND I KNEW
 THE ANSWER. I HAD TO FIND A THEORETICAL EXPLANATION AT ANY COST,
 EXCEPT FOR THE INVIOLABLITY OF THE TWO LAWS OF THERMODYNAMICS.
   -- MAX PLANCK, 1931
 Job cpu time:  0 days  0 hours  0 minutes  1.0 seconds.
 File lengths (MBytes):  RWF=      5 Int=      0 D2E=      0 Chk=      1 Scr=      1
 Normal termination of Gaussian 09 at Tue Nov 07 10:22:51 2023.
