 Entering Link 1 = C:\G09W\l1.exe PID=     17784.
  
 Copyright (c) 1988,1990,1992,1993,1995,1998,2003,2009,2010,
            Gaussian, Inc.  All Rights Reserved.
  
 This is part of the Gaussian(R) 09 program.  It is based on
 the Gaussian(R) 03 system (copyright 2003, Gaussian, Inc.),
 the Gaussian(R) 98 system (copyright 1998, Gaussian, Inc.),
 the Gaussian(R) 94 system (copyright 1995, Gaussian, Inc.),
 the Gaussian 92(TM) system (copyright 1992, Gaussian, Inc.),
 the Gaussian 90(TM) system (copyright 1990, Gaussian, Inc.),
 the Gaussian 88(TM) system (copyright 1988, Gaussian, Inc.),
 the Gaussian 86(TM) system (copyright 1986, Carnegie Mellon
 University), and the Gaussian 82(TM) system (copyright 1983,
 Carnegie Mellon University). Gaussian is a federally registered
 trademark of Gaussian, Inc.
  
 This software contains proprietary and confidential information,
 including trade secrets, belonging to Gaussian, Inc.
  
 This software is provided under written license and may be
 used, copied, transmitted, or stored only in accord with that
 written license.
  
 The following legend is applicable only to US Government
 contracts under FAR:
  
                    RESTRICTED RIGHTS LEGEND
  
 Use, reproduction and disclosure by the US Government is
 subject to restrictions as set forth in subparagraphs (a)
 and (c) of the Commercial Computer Software - Restricted
 Rights clause in FAR 52.227-19.
  
 Gaussian, Inc.
 340 Quinnipiac St., Bldg. 40, Wallingford CT 06492
  
  
 ---------------------------------------------------------------
 Warning -- This program may not be used in any manner that
 competes with the business of Gaussian, Inc. or will provide
 assistance to any competitor of Gaussian, Inc.  The licensee
 of this program is prohibited from giving any competitor of
 Gaussian, Inc. access to this program.  By using this program,
 the user acknowledges that Gaussian, Inc. is engaged in the
 business of creating and licensing software in the field of
 computational chemistry and represents and warrants to the
 licensee that it is not a competitor of Gaussian, Inc. and that
 it will not use this program in any manner prohibited above.
 ---------------------------------------------------------------
  

 Cite this work as:
 Gaussian 09, Revision B.01,
 M. J. Frisch, G. W. Trucks, H. B. Schlegel, G. E. Scuseria, 
 M. A. Robb, J. R. Cheeseman, G. Scalmani, V. Barone, B. Mennucci, 
 G. A. Petersson, H. Nakatsuji, M. Caricato, X. Li, H. P. Hratchian, 
 A. F. Izmaylov, J. Bloino, G. Zheng, J. L. Sonnenberg, M. Hada, 
 M. Ehara, K. Toyota, R. Fukuda, J. Hasegawa, M. Ishida, T. Nakajima, 
 Y. Honda, O. Kitao, H. Nakai, T. Vreven, J. A. Montgomery, Jr., 
 J. E. Peralta, F. Ogliaro, M. Bearpark, J. J. Heyd, E. Brothers, 
 K. N. Kudin, V. N. Staroverov, T. Keith, R. Kobayashi, J. Normand, 
 K. Raghavachari, A. Rendell, J. C. Burant, S. S. Iyengar, J. Tomasi, 
 M. Cossi, N. Rega, J. M. Millam, M. Klene, J. E. Knox, J. B. Cross, 
 V. Bakken, C. Adamo, J. Jaramillo, R. Gomperts, R. E. Stratmann, 
 O. Yazyev, A. J. Austin, R. Cammi, C. Pomelli, J. W. Ochterski, 
 R. L. Martin, K. Morokuma, V. G. Zakrzewski, G. A. Voth, 
 P. Salvador, J. J. Dannenberg, S. Dapprich, A. D. Daniels, 
 O. Farkas, J. B. Foresman, J. V. Ortiz, J. Cioslowski, 
 and D. J. Fox, Gaussian, Inc., Wallingford CT, 2010.
 
 ******************************************
 Gaussian 09:  IA32W-G09RevB.01 12-Aug-2010
                07-Nov-2023 
 ******************************************
 %chk=PH3-EXPGEOM-ROHF-S3.chk
 %mem=6MW
 %nproc=1
 Will use up to    1 processors via shared memory.
 ----------------------
 # rohf/sto-3g pop=full
 ----------------------
 1/38=1/1;
 2/12=2,17=6,18=5,40=1/2;
 3/6=3,11=2,16=1,25=1,30=1,116=101/1,2,3;
 4//1;
 5/5=2,38=5/2;
 6/7=3,28=1/1;
 99/5=1,9=1/99;
 -------------------
 PH3-EXPGEOM-ROHF-S3
 -------------------
 Symbolic Z-matrix:
 Charge =  0 Multiplicity = 7
 P1                    0.        0.        0. 
 H2                    0.       -1.1932   -0.7717 
 H3                    1.0333    0.5966   -0.7717 
 H4                   -1.0333    0.5966   -0.7717 
 
                          Input orientation:                          
 ---------------------------------------------------------------------
 Center     Atomic      Atomic             Coordinates (Angstroms)
 Number     Number       Type             X           Y           Z
 ---------------------------------------------------------------------
      1         15           0        0.000000    0.000000    0.000000
      2          1           0        0.000000   -1.193200   -0.771700
      3          1           0        1.033300    0.596600   -0.771700
      4          1           0       -1.033300    0.596600   -0.771700
 ---------------------------------------------------------------------
                    Distance matrix (angstroms):
                    1          2          3          4
     1  P    0.000000
     2  H    1.421002   0.000000
     3  H    1.420972   2.066662   0.000000
     4  H    1.420972   2.066662   2.066600   0.000000
 Stoichiometry    H3P(7)
 Framework group  CS[SG(HP),X(H2)]
 Deg. of freedom     4
 Full point group                 CS      NOp   2
 Largest Abelian subgroup         CS      NOp   2
 Largest concise Abelian subgroup CS      NOp   2
                         Standard orientation:                         
 ---------------------------------------------------------------------
 Center     Atomic      Atomic             Coordinates (Angstroms)
 Number     Number       Type             X           Y           Z
 ---------------------------------------------------------------------
      1         15           0        0.000000    0.128617    0.000000
      2          1           0       -1.193200   -0.643083    0.000000
      3          1           0        0.596600   -0.643083    1.033300
      4          1           0        0.596600   -0.643083   -1.033300
 ---------------------------------------------------------------------
 Rotational constants (GHZ):    133.2559896    133.2499140    117.4090990
 Standard basis: STO-3G (5D, 7F)
 There are     9 symmetry adapted basis functions of A'  symmetry.
 There are     3 symmetry adapted basis functions of A"  symmetry.
 Integral buffers will be    262144 words long.
 Raffenetti 2 integral format.
 Two-electron integral symmetry is turned on.
    12 basis functions,    36 primitive gaussians,    12 cartesian basis functions
    12 alpha electrons        6 beta electrons
       nuclear repulsion energy        17.5262806456 Hartrees.
 NAtoms=    4 NActive=    4 NUniq=    3 SFac= 1.78D+00 NAtFMM=   50 NAOKFM=F Big=F
 One-electron integrals computed using PRISM.
 NBasis=    12 RedAO= T  NBF=     9     3
 NBsUse=    12 1.00D-06 NBFU=     9     3
 Harris functional with IExCor=  205 diagonalized for initial guess.
 ExpMin= 1.69D-01 ExpMax= 4.68D+02 ExpMxC= 4.68D+02 IAcc=1 IRadAn=         1 AccDes= 0.00D+00
 HarFok:  IExCor=  205 AccDes= 0.00D+00 IRadAn=         1 IDoV= 1
 ScaDFX=  1.000000  1.000000  1.000000  1.000000
 FoFCou: FMM=F IPFlag=           0 FMFlag=      100000 FMFlg1=           0
         NFxFlg=           0 DoJE=T BraDBF=F KetDBF=T FulRan=T
         Omega=  0.000000  0.000000  1.000000  0.000000  0.000000 ICntrl=     500 IOpCl=  0
         NMat0=    1 NMatS0=    1 NMatT0=    0 NMatD0=    1 NMtDS0=    0 NMtDT0=    0
         I1Cent=           4 NGrid=           0.
 Petite list used in FoFCou.
 Initial guess orbital symmetries:
       Occupied  (A') (A') (A") (A') (A') (A') (A') (A") (A') (A")
                 (A') (A')
 The electronic state of the initial guess is 7-A'.
 Requested convergence on RMS density matrix=1.00D-08 within 128 cycles.
 Requested convergence on MAX density matrix=1.00D-06.
 Requested convergence on             energy=1.00D-06.
 No special actions if energy rises.
 Keep R1 and R2 ints in memory in canonical form, NReq=825905.
 SCF Done:  E(ROHF) =  -337.496910328     A.U. after   13 cycles
             Convg  =    0.3914D-08             -V/T =  2.0001
 <Sx>= 0.0000 <Sy>= 0.0000 <Sz>= 3.0000 <S**2>=12.0000 S= 3.0000
 <L.S>= 0.000000000000E+00
 Annihilation of the first spin contaminant:
 S**2 before annihilation    12.0000,   after    12.0000

 **********************************************************************

            Population analysis using the SCF density.

 **********************************************************************

 Orbital symmetries:
       Occupied  (A') (A') (A") (A') (A') (A') (A') (A") (A') (A')
                 (A") (A')
 The electronic state is 7-A'.
 Alpha  occ. eigenvalues --  -78.74694  -7.10657  -4.92542  -4.92542  -4.92490
 Alpha  occ. eigenvalues --   -0.62888  -0.15784  -0.15784  -0.08310   0.21969
 Alpha  occ. eigenvalues --    0.21969   0.30424
     Molecular Orbital Coefficients:
                           1         2         3         4         5
                           O         O         O         O         O
     Eigenvalues --   -78.74694  -7.10657  -4.92542  -4.92542  -4.92490
   1 1   P  1S          0.99402  -0.35613   0.00000   0.00000   0.00092
   2        2S          0.01803   1.04210   0.00000   0.00000  -0.00295
   3        2PX         0.00000   0.00000   0.00000   0.97953   0.00033
   4        2PY        -0.00006   0.00621   0.00000  -0.00033   0.97969
   5        2PZ         0.00000   0.00000   0.97953   0.00000   0.00000
   6        3S         -0.00318   0.05965   0.00000   0.00001  -0.01405
   7        3PX         0.00000   0.00000   0.00000   0.07256   0.00002
   8        3PY         0.00057  -0.00810   0.00000  -0.00002   0.07190
   9        3PZ         0.00000   0.00000   0.07256   0.00000   0.00000
  10 2   H  1S          0.00076  -0.01113   0.00000   0.01560   0.01159
  11 3   H  1S          0.00076  -0.01113  -0.01351  -0.00781   0.01158
  12 4   H  1S          0.00076  -0.01113   0.01351  -0.00781   0.01158
                           6         7         8         9        10
                           O         O         O         O         O
     Eigenvalues --    -0.62888  -0.15784  -0.15784  -0.08310   0.21969
   1 1   P  1S          0.08221   0.00000   0.00000   0.04384  -0.00001
   2        2S         -0.28872  -0.00001   0.00000  -0.14022   0.00002
   3        2PX         0.00000   0.20248   0.00000   0.00000  -0.29418
   4        2PY         0.05323  -0.00001   0.00000  -0.24951  -0.00003
   5        2PZ         0.00000   0.00000  -0.20248   0.00000   0.00000
   6        3S          0.80380   0.00003   0.00000   0.62365  -0.00008
   7        3PX         0.00001  -0.53415   0.00000   0.00001   1.05507
   8        3PY        -0.13184   0.00001   0.00000   0.71679   0.00010
   9        3PZ         0.00000   0.00000   0.53415   0.00000   0.00000
  10 2   H  1S          0.15075   0.55474   0.00000  -0.26745   0.81771
  11 3   H  1S          0.15076  -0.27737   0.48042  -0.26743  -0.40875
  12 4   H  1S          0.15076  -0.27737  -0.48042  -0.26743  -0.40875
                          11        12
                           O         O
     Eigenvalues --     0.21969   0.30424
   1 1   P  1S          0.00000  -0.04898
   2        2S          0.00000   0.14128
   3        2PX         0.00000   0.00003
   4        2PY         0.00000  -0.24849
   5        2PZ        -0.29418   0.00000
   6        3S          0.00000  -0.91508
   7        3PX         0.00000  -0.00013
   8        3PY         0.00000   0.92667
   9        3PZ         1.05507   0.00000
  10 2   H  1S          0.00000   0.68825
  11 3   H  1S         -0.70811   0.68841
  12 4   H  1S          0.70811   0.68841
     Alpha Density Matrix:
                           1         2         3         4         5
   1 1   P  1S          1.12599
   2        2S         -0.39001   1.20928
   3        2PX         0.00000   0.00000   1.08702
   4        2PY         0.00424  -0.01191   0.00000   1.08668
   5        2PZ         0.00000   0.00000   0.00000   0.00000   1.08702
   6        3S          0.11382  -0.38666  -0.00001   0.10117   0.00000
   7        3PX         0.00000   0.00000  -0.34746   0.00000   0.00000
   8        3PY        -0.02129   0.05984   0.00000  -0.34574   0.00000
   9        3PZ         0.00000   0.00000   0.00000   0.00000  -0.34746
  10 2   H  1S         -0.02832   0.07960  -0.11293  -0.08501   0.00000
  11 3   H  1S         -0.02832   0.07960   0.05647  -0.08502   0.09780
  12 4   H  1S         -0.02832   0.07960   0.05647  -0.08502  -0.09780
                           6         7         8         9        10
   6        3S          1.87618
   7        3PX         0.00003   1.40375
   8        3PY        -0.50841  -0.00002   1.39511
   9        3PZ         0.00000   0.00000   0.00000   1.40375
  10 2   H  1S         -0.67631   0.56747   0.42721   0.00000   1.54483
  11 3   H  1S         -0.67635  -0.28376   0.42724  -0.49146   0.08008
  12 4   H  1S         -0.67635  -0.28376   0.42724   0.49146   0.08008
                          11        12
  11 3   H  1S          1.54488
  12 4   H  1S          0.08009   1.54488
     Beta Density Matrix:
                           1         2         3         4         5
   1 1   P  1S          1.12167
   2        2S         -0.37694   1.16966
   3        2PX         0.00000   0.00000   0.95948
   4        2PY         0.00300  -0.01179   0.00000   0.96267
   5        2PZ         0.00000   0.00000   0.00000   0.00000   0.95948
   6        3S          0.04166  -0.16993   0.00000   0.02939   0.00000
   7        3PX         0.00000   0.00000   0.07108   0.00000   0.00000
   8        3PY        -0.00732   0.02943   0.00000   0.06337   0.00000
   9        3PZ         0.00000   0.00000   0.00000   0.00000   0.07108
  10 2   H  1S          0.01712  -0.05515   0.01528   0.01930   0.00000
  11 3   H  1S          0.01712  -0.05515  -0.00764   0.01931  -0.01324
  12 4   H  1S          0.01712  -0.05515  -0.00764   0.01931   0.01324
                           6         7         8         9        10
   6        3S          0.64986
   7        3PX         0.00001   0.00527
   8        3PY        -0.10747   0.00000   0.02262
   9        3PZ         0.00000   0.00000   0.00000   0.00527
  10 2   H  1S          0.12035   0.00113  -0.01895   0.00000   0.02323
  11 3   H  1S          0.12035  -0.00056  -0.01895  -0.00098   0.02286
  12 4   H  1S          0.12035  -0.00056  -0.01895   0.00098   0.02286
                          11        12
  11 3   H  1S          0.02323
  12 4   H  1S          0.02287   0.02323
    Full Mulliken population analysis:
                           1         2         3         4         5
   1 1   P  1S          2.24766
   2        2S         -0.24972   2.37895
   3        2PX         0.00000   0.00000   2.04650
   4        2PY         0.00000   0.00000   0.00000   2.04935
   5        2PZ         0.00000   0.00000   0.00000   0.00000   2.04650
   6        3S          0.00217  -0.13811   0.00000   0.00000   0.00000
   7        3PX         0.00000   0.00000  -0.07253   0.00000   0.00000
   8        3PY         0.00000   0.00000   0.00000  -0.07410   0.00000
   9        3PZ         0.00000   0.00000   0.00000   0.00000  -0.07253
  10 2   H  1S         -0.00008   0.00140   0.00240   0.00104   0.00000
  11 3   H  1S         -0.00008   0.00140   0.00060   0.00104   0.00180
  12 4   H  1S         -0.00008   0.00140   0.00060   0.00104   0.00180
                           6         7         8         9        10
   6        3S          2.52604
   7        3PX         0.00000   1.40901
   8        3PY         0.00000   0.00000   1.41773
   9        3PZ         0.00000   0.00000   0.00000   1.40901
  10 2   H  1S         -0.21422  -0.20878  -0.09695   0.00000   1.56806
  11 3   H  1S         -0.21424  -0.05220  -0.09696  -0.15660   0.01099
  12 4   H  1S         -0.21424  -0.05220  -0.09696  -0.15660   0.01099
                          11        12
  11 3   H  1S          1.56812
  12 4   H  1S          0.01099   1.56812
     Gross orbital populations:
                         Total     Alpha     Beta      Spin
   1 1   P  1S          1.99987   1.00000   0.99987   0.00013
   2        2S          1.99531   1.00000   0.99531   0.00469
   3        2PX         1.97757   1.00000   0.97757   0.02243
   4        2PY         1.97838   1.00000   0.97838   0.02162
   5        2PZ         1.97757   1.00000   0.97757   0.02243
   6        3S          1.74739   1.00000   0.74739   0.25261
   7        3PX         1.02329   1.00000   0.02329   0.97671
   8        3PY         1.05275   1.00000   0.05275   0.94725
   9        3PZ         1.02329   1.00000   0.02329   0.97671
  10 2   H  1S          1.07485   1.00000   0.07485   0.92515
  11 3   H  1S          1.07486   1.00000   0.07486   0.92514
  12 4   H  1S          1.07486   1.00000   0.07486   0.92514
          Condensed to atoms (all electrons):
              1          2          3          4
     1  P   16.321103  -0.515192  -0.515239  -0.515239
     2  H   -0.515192   1.568061   0.010990   0.010990
     3  H   -0.515239   0.010990   1.568116   0.010992
     4  H   -0.515239   0.010990   0.010992   1.568116
 Mulliken atomic charges:
              1
     1  P    0.224567
     2  H   -0.074849
     3  H   -0.074859
     4  H   -0.074859
 Sum of Mulliken atomic charges =   0.00000
 Mulliken charges with hydrogens summed into heavy atoms:
              1
     1  P    0.000000
 Sum of Mulliken charges with hydrogens summed into heavy atoms =   0.00000
          Atomic-Atomic Spin Densities.
              1          2          3          4
     1  P    5.050696  -0.608670  -0.608729  -0.608729
     2  H   -0.608670   1.521605   0.006108   0.006108
     3  H   -0.608729   0.006108   1.521653   0.006109
     4  H   -0.608729   0.006108   0.006109   1.521653
 Mulliken atomic spin densities:
              1
     1  P    3.224567
     2  H    0.925151
     3  H    0.925141
     4  H    0.925141
 Sum of Mulliken atomic spin densities =   6.00000
 Electronic spatial extent (au):  <R**2>=             50.9703
 Charge=              0.0000 electrons
 Dipole moment (field-independent basis, Debye):
    X=             -0.0001    Y=              1.4824    Z=              0.0000  Tot=              1.4824
 Quadrupole moment (field-independent basis, Debye-Ang):
   XX=            -13.7987   YY=            -13.2940   ZZ=            -13.7987
   XY=              0.0001   XZ=              0.0000   YZ=              0.0000
 Traceless Quadrupole moment (field-independent basis, Debye-Ang):
   XX=             -0.1682   YY=              0.3365   ZZ=             -0.1682
   XY=              0.0001   XZ=              0.0000   YZ=              0.0000
 Octapole moment (field-independent basis, Debye-Ang**2):
  XXX=              1.3737  YYY=              2.8392  ZZZ=              0.0000  XYY=             -0.0001
  XXY=              2.1916  XXZ=              0.0000  XZZ=             -1.3738  YZZ=              2.1916
  YYZ=              0.0000  XYZ=              0.0000
 Hexadecapole moment (field-independent basis, Debye-Ang**3):
 XXXX=            -26.6054 YYYY=            -20.2641 ZZZZ=            -26.6042 XXXY=             -1.3242
 XXXZ=              0.0000 YYYX=              0.0001 YYYZ=              0.0000 ZZZX=              0.0000
 ZZZY=              0.0000 XXYY=             -8.5850 XXZZ=             -8.8683 YYZZ=             -8.5848
 XXYZ=              0.0000 YYXZ=              0.0000 ZZXY=              1.3243
 N-N= 1.752628064564D+01 E-N=-1.235083209181D+03  KE= 5.005332061020D+02
 Symmetry A'   KE= 4.563104022588D+02
 Symmetry A"   KE= 4.422280384315D+01
 Orbital energies and kinetic energies (alpha):
                                 1                 2
   1         O               -78.746940        102.690439
   2         O                -7.106566         18.033909
   3         O                -4.925417         13.589871
   4         O                -4.925417         13.589870
   5         O                -4.924905         13.593857
   6         O                -0.628882          1.585555
   7         O                -0.157841          1.178611
   8         O                -0.157839          1.178631
   9         O                -0.083102          1.798083
  10         O                 0.219693          2.274572
  11         O                 0.219694          2.274559
  12         O                 0.304237          2.578246
 Total kinetic energy from orbitals= 3.487324070722D+02
                          Isotropic Fermi Contact Couplings
        Atom                 a.u.       MegaHertz       Gauss      10(-4) cm-1
     1  P(31)              1.97869     597.26591     213.11932     199.22646
     2  H(1)               0.48969     364.81093     130.17361     121.68783
     3  H(1)               0.48970     364.81459     130.17491     121.68905
     4  H(1)               0.48970     364.81459     130.17491     121.68905
 --------------------------------------------------------
       Center         ----  Spin Dipole Couplings  ----
                      3XX-RR        3YY-RR        3ZZ-RR
 --------------------------------------------------------
     1   Atom        0.057168     -0.114317      0.057149
     2   Atom        0.114484     -0.024499     -0.089985
     3   Atom       -0.038866     -0.024497      0.063363
     4   Atom       -0.038866     -0.024497      0.063363
 --------------------------------------------------------
                        XY            XZ            YZ
 --------------------------------------------------------
     1   Atom       -0.000026      0.000000      0.000000
     2   Atom        0.119562      0.000000      0.000000
     3   Atom       -0.059784      0.088539     -0.103545
     4   Atom       -0.059784     -0.088539      0.103545
 --------------------------------------------------------


 ---------------------------------------------------------------------------------
              Anisotropic Spin Dipole Couplings in Principal Axis System
 ---------------------------------------------------------------------------------

       Atom             a.u.   MegaHertz   Gauss  10(-4) cm-1        Axes

              Baa    -0.1143   -24.713    -8.818    -8.244  0.0002  1.0000  0.0000
     1 P(31)  Bbb     0.0571    12.355     4.408     4.121  0.0000  0.0000  1.0000
              Bcc     0.0572    12.359     4.410     4.122  1.0000 -0.0002  0.0000
 
              Baa    -0.0933   -49.779   -17.762   -16.604 -0.4987  0.8667  0.0000
     2 H(1)   Bbb    -0.0900   -48.012   -17.132   -16.015  0.0000  0.0000  1.0000
              Bcc     0.1833    97.791    34.894    32.620  0.8667  0.4987  0.0000
 
              Baa    -0.0933   -49.780   -17.763   -16.605  0.2495  0.8667  0.4319
     3 H(1)   Bbb    -0.0900   -48.012   -17.132   -16.015  0.8660 -0.0001 -0.5001
              Bcc     0.1833    97.792    34.895    32.620  0.4334 -0.4988  0.7506
 
              Baa    -0.0933   -49.780   -17.763   -16.605  0.2495  0.8667 -0.4319
     4 H(1)   Bbb    -0.0900   -48.012   -17.132   -16.015  0.8660 -0.0001  0.5001
              Bcc     0.1833    97.792    34.895    32.620 -0.4334  0.4988  0.7506
 

 ---------------------------------------------------------------------------------

 1|1|UNPC-DESKTOP-FN8L32V|SP|ROHF|STO-3G|H3P1(7)|FELIP|07-Nov-2023|0||#
  rohf/sto-3g pop=full||PH3-EXPGEOM-ROHF-S3||0,7|P,0,0.,0.,0.|H,0,0.,-1
 .1932,-0.7717|H,0,1.0333,0.5966,-0.7717|H,0,-1.0333,0.5966,-0.7717||Ve
 rsion=IA32W-G09RevB.01|State=7-A'|HF=-337.4969103|RMSD=3.914e-009|Dipo
 le=0.,-0.0000355,0.5832031|Quadrupole=-0.1250623,-0.1250895,0.2501517,
 0.,0.,0.00004|PG=CS [SG(H1P1),X(H2)]||@


 ERWIN WITH HIS PSI CAN DO
 CALCULATIONS QUITE A FEW.
 BUT ONE THING HAS NOT BEEN SEEN
 JUST WHAT DOES PSI REALLY MEAN.
 -- WALTER HUCKEL, TRANS. BY FELIX BLOCH
 Job cpu time:  0 days  0 hours  0 minutes  0.0 seconds.
 File lengths (MBytes):  RWF=      5 Int=      0 D2E=      0 Chk=      1 Scr=      1
 Normal termination of Gaussian 09 at Tue Nov 07 10:24:38 2023.
