 Entering Link 1 = C:\G09W\l1.exe PID=      9668.
  
 Copyright (c) 1988,1990,1992,1993,1995,1998,2003,2009,2010,
            Gaussian, Inc.  All Rights Reserved.
  
 This is part of the Gaussian(R) 09 program.  It is based on
 the Gaussian(R) 03 system (copyright 2003, Gaussian, Inc.),
 the Gaussian(R) 98 system (copyright 1998, Gaussian, Inc.),
 the Gaussian(R) 94 system (copyright 1995, Gaussian, Inc.),
 the Gaussian 92(TM) system (copyright 1992, Gaussian, Inc.),
 the Gaussian 90(TM) system (copyright 1990, Gaussian, Inc.),
 the Gaussian 88(TM) system (copyright 1988, Gaussian, Inc.),
 the Gaussian 86(TM) system (copyright 1986, Carnegie Mellon
 University), and the Gaussian 82(TM) system (copyright 1983,
 Carnegie Mellon University). Gaussian is a federally registered
 trademark of Gaussian, Inc.
  
 This software contains proprietary and confidential information,
 including trade secrets, belonging to Gaussian, Inc.
  
 This software is provided under written license and may be
 used, copied, transmitted, or stored only in accord with that
 written license.
  
 The following legend is applicable only to US Government
 contracts under FAR:
  
                    RESTRICTED RIGHTS LEGEND
  
 Use, reproduction and disclosure by the US Government is
 subject to restrictions as set forth in subparagraphs (a)
 and (c) of the Commercial Computer Software - Restricted
 Rights clause in FAR 52.227-19.
  
 Gaussian, Inc.
 340 Quinnipiac St., Bldg. 40, Wallingford CT 06492
  
  
 ---------------------------------------------------------------
 Warning -- This program may not be used in any manner that
 competes with the business of Gaussian, Inc. or will provide
 assistance to any competitor of Gaussian, Inc.  The licensee
 of this program is prohibited from giving any competitor of
 Gaussian, Inc. access to this program.  By using this program,
 the user acknowledges that Gaussian, Inc. is engaged in the
 business of creating and licensing software in the field of
 computational chemistry and represents and warrants to the
 licensee that it is not a competitor of Gaussian, Inc. and that
 it will not use this program in any manner prohibited above.
 ---------------------------------------------------------------
  

 Cite this work as:
 Gaussian 09, Revision B.01,
 M. J. Frisch, G. W. Trucks, H. B. Schlegel, G. E. Scuseria, 
 M. A. Robb, J. R. Cheeseman, G. Scalmani, V. Barone, B. Mennucci, 
 G. A. Petersson, H. Nakatsuji, M. Caricato, X. Li, H. P. Hratchian, 
 A. F. Izmaylov, J. Bloino, G. Zheng, J. L. Sonnenberg, M. Hada, 
 M. Ehara, K. Toyota, R. Fukuda, J. Hasegawa, M. Ishida, T. Nakajima, 
 Y. Honda, O. Kitao, H. Nakai, T. Vreven, J. A. Montgomery, Jr., 
 J. E. Peralta, F. Ogliaro, M. Bearpark, J. J. Heyd, E. Brothers, 
 K. N. Kudin, V. N. Staroverov, T. Keith, R. Kobayashi, J. Normand, 
 K. Raghavachari, A. Rendell, J. C. Burant, S. S. Iyengar, J. Tomasi, 
 M. Cossi, N. Rega, J. M. Millam, M. Klene, J. E. Knox, J. B. Cross, 
 V. Bakken, C. Adamo, J. Jaramillo, R. Gomperts, R. E. Stratmann, 
 O. Yazyev, A. J. Austin, R. Cammi, C. Pomelli, J. W. Ochterski, 
 R. L. Martin, K. Morokuma, V. G. Zakrzewski, G. A. Voth, 
 P. Salvador, J. J. Dannenberg, S. Dapprich, A. D. Daniels, 
 O. Farkas, J. B. Foresman, J. V. Ortiz, J. Cioslowski, 
 and D. J. Fox, Gaussian, Inc., Wallingford CT, 2010.
 
 ******************************************
 Gaussian 09:  IA32W-G09RevB.01 12-Aug-2010
                26-Nov-2023 
 ******************************************
 %chk=PH3-NBO-HF.chk
 %mem=6MW
 %nproc=1
 Will use up to    1 processors via shared memory.
 ---------------------------------------------------
 #P rhf/3-21G pop=(nbo,savenbo) DENSITY=CURRENT FCHK
 ---------------------------------------------------
 1/30=1,38=1/1;
 2/12=2,17=6,18=5,40=1/2;
 3/5=5,11=1,16=1,25=1,30=1,116=1/1,2,3;
 4//1;
 5/5=2,38=5/2;
 6/7=2,8=2,9=2,10=2,22=-1,28=1,73=1/1,7;
 99/5=1,9=1/99;
 Leave Link    1 at Sun Nov 26 22:53:58 2023, MaxMem=    6291456 cpu:       0.0
 (Enter C:\G09W\l101.exe)
 -----------
 PH3-NBO-RHF
 -----------
 Symbolic Z-matrix:
 Charge =  0 Multiplicity = 1
 P1                    0.        0.        0. 
 H2                    0.       -1.1932   -0.7717 
 H3                    1.0333    0.5966   -0.7717 
 H4                   -1.0333    0.5966   -0.7717 
 
 NAtoms=      4 NQM=      4 NQMF=      0 NMic=      0 NMicF=      0 NTot=      4.
                    Isotopes and Nuclear Properties:
 (Nuclear quadrupole moments (NQMom) in fm**2, nuclear magnetic moments (NMagM)
  in nuclear magnetons)

  Atom         1           2           3           4
 IAtWgt=          31           1           1           1
 AtmWgt=  30.9737634   1.0078250   1.0078250   1.0078250
 NucSpn=           1           1           1           1
 AtZEff=   0.0000000   0.0000000   0.0000000   0.0000000
 NQMom=    0.0000000   0.0000000   0.0000000   0.0000000
 NMagM=    1.1316000   2.7928460   2.7928460   2.7928460
 Leave Link  101 at Sun Nov 26 22:53:58 2023, MaxMem=    6291456 cpu:       0.0
 (Enter C:\G09W\l202.exe)
                          Input orientation:                          
 ---------------------------------------------------------------------
 Center     Atomic      Atomic             Coordinates (Angstroms)
 Number     Number       Type             X           Y           Z
 ---------------------------------------------------------------------
      1         15           0        0.000000    0.000000    0.000000
      2          1           0        0.000000   -1.193200   -0.771700
      3          1           0        1.033300    0.596600   -0.771700
      4          1           0       -1.033300    0.596600   -0.771700
 ---------------------------------------------------------------------
                    Distance matrix (angstroms):
                    1          2          3          4
     1  P    0.000000
     2  H    1.421002   0.000000
     3  H    1.420972   2.066662   0.000000
     4  H    1.420972   2.066662   2.066600   0.000000
 Stoichiometry    H3P
 Framework group  CS[SG(HP),X(H2)]
 Deg. of freedom     4
 Full point group                 CS      NOp   2
 Largest Abelian subgroup         CS      NOp   2
 Largest concise Abelian subgroup CS      NOp   2
                         Standard orientation:                         
 ---------------------------------------------------------------------
 Center     Atomic      Atomic             Coordinates (Angstroms)
 Number     Number       Type             X           Y           Z
 ---------------------------------------------------------------------
      1         15           0        0.000000    0.128617    0.000000
      2          1           0       -1.193200   -0.643083    0.000000
      3          1           0        0.596600   -0.643083    1.033300
      4          1           0        0.596600   -0.643083   -1.033300
 ---------------------------------------------------------------------
 Rotational constants (GHZ):    133.2559896    133.2499140    117.4090990
 Leave Link  202 at Sun Nov 26 22:53:58 2023, MaxMem=    6291456 cpu:       0.0
 (Enter C:\G09W\l301.exe)
 Standard basis: 3-21G (6D, 7F)
 Ernie: Thresh=  0.10000D-02 Tol=  0.10000D-05 Strict=F.
 There are    14 symmetry adapted basis functions of A'  symmetry.
 There are     5 symmetry adapted basis functions of A"  symmetry.
 Integral buffers will be    262144 words long.
 Raffenetti 1 integral format.
 Two-electron integral symmetry is turned on.
    19 basis functions,    36 primitive gaussians,    19 cartesian basis functions
     9 alpha electrons        9 beta electrons
       nuclear repulsion energy        17.5262806456 Hartrees.
 IExCor=    0 DFT=F Ex=HF Corr=None ExCW=0 ScaHFX=  1.000000
 ScaDFX=  1.000000  1.000000  1.000000  1.000000 ScalE2=  1.000000  1.000000
 IRadAn=      0 IRanWt=     -1 IRanGd=            0 ICorTp=0
 NAtoms=    4 NActive=    4 NUniq=    3 SFac= 1.78D+00 NAtFMM=   50 NAOKFM=F Big=F
 Leave Link  301 at Sun Nov 26 22:53:58 2023, MaxMem=    6291456 cpu:       0.0
 (Enter C:\G09W\l302.exe)
 NPDir=0 NMtPBC=     1 NCelOv=     1 NCel=       1 NClECP=     1 NCelD=      1
         NCelK=      1 NCelE2=     1 NClLst=     1 CellRange=     0.0.
 One-electron integrals computed using PRISM.
 One-electron integral symmetry used in STVInt
 NBasis=    19 RedAO= T  NBF=    14     5
 NBsUse=    19 1.00D-06 NBFU=    14     5
 Leave Link  302 at Sun Nov 26 22:53:58 2023, MaxMem=    6291456 cpu:       0.0
 (Enter C:\G09W\l303.exe)
 DipDrv:  MaxL=1.
 Leave Link  303 at Sun Nov 26 22:53:58 2023, MaxMem=    6291456 cpu:       0.0
 (Enter C:\G09W\l401.exe)
 Harris functional with IExCor=  205 diagonalized for initial guess.
 ExpMin= 1.23D-01 ExpMax= 1.05D+03 ExpMxC= 1.05D+03 IAcc=1 IRadAn=         1 AccDes= 0.00D+00
 HarFok:  IExCor=  205 AccDes= 0.00D+00 IRadAn=         1 IDoV= 1
 ScaDFX=  1.000000  1.000000  1.000000  1.000000
 FoFCou: FMM=F IPFlag=           0 FMFlag=      100000 FMFlg1=           0
         NFxFlg=           0 DoJE=T BraDBF=F KetDBF=T FulRan=T
         Omega=  0.000000  0.000000  1.000000  0.000000  0.000000 ICntrl=     500 IOpCl=  0
         NMat0=    1 NMatS0=    1 NMatT0=    0 NMatD0=    1 NMtDS0=    0 NMtDT0=    0
         I1Cent=           4 NGrid=           0.
 Petite list used in FoFCou.
 Harris En= -340.416109265499    
 Initial guess orbital symmetries:
       Occupied  (A') (A') (A") (A') (A') (A') (A') (A") (A')
       Virtual   (A") (A') (A') (A") (A') (A') (A') (A') (A") (A')
 The electronic state of the initial guess is 1-A'.
 Leave Link  401 at Sun Nov 26 22:53:58 2023, MaxMem=    6291456 cpu:       0.0
 (Enter C:\G09W\l502.exe)
 Closed shell SCF:
 Requested convergence on RMS density matrix=1.00D-08 within 128 cycles.
 Requested convergence on MAX density matrix=1.00D-06.
 Requested convergence on             energy=1.00D-06.
 No special actions if energy rises.
 Using DIIS extrapolation, IDIIS=  1040.
 Integral symmetry usage will be decided dynamically.
 Keep R1 ints in memory in canonical form, NReq=837892.
 IEnd=       19733 IEndB=       19733 NGot=     6291456 MDV=     6270653
 LenX=     6270653 LenY=     6269771
 Symmetry not used in FoFDir.
 MinBra= 0 MaxBra= 1 Meth= 1.
 IRaf=       0 NMat=   1 IRICut=       1 DoRegI=T DoRafI=F ISym2E= 0 JSym2E=0.

 Cycle   1  Pass 1  IDiag  1:
 E= -340.689759221608    
 DIIS: error= 3.07D-02 at cycle   1 NSaved=   1.
 NSaved= 1 IEnMin= 1 EnMin= -340.689759221608     IErMin= 1 ErrMin= 3.07D-02
 ErrMax= 3.07D-02 EMaxC= 1.00D-01 BMatC= 3.37D-02 BMatP= 3.37D-02
 IDIUse=3 WtCom= 6.93D-01 WtEn= 3.07D-01
 Coeff-Com:  0.100D+01
 Coeff-En:   0.100D+01
 Coeff:      0.100D+01
 Gap=     0.562 Goal=   None    Shift=    0.000
 GapD=    0.562 DampG=2.000 DampE=0.500 DampFc=1.0000 IDamp=-1.
 RMSDP=6.34D-03 MaxDP=3.54D-02              OVMax= 2.56D-02

 Cycle   2  Pass 1  IDiag  1:
 E= -340.703684863045     Delta-E=       -0.013925641437 Rises=F Damp=F
 DIIS: error= 2.56D-03 at cycle   2 NSaved=   2.
 NSaved= 2 IEnMin= 2 EnMin= -340.703684863045     IErMin= 2 ErrMin= 2.56D-03
 ErrMax= 2.56D-03 EMaxC= 1.00D-01 BMatC= 1.67D-04 BMatP= 3.37D-02
 IDIUse=3 WtCom= 9.74D-01 WtEn= 2.56D-02
 Coeff-Com: -0.379D-01 0.104D+01
 Coeff-En:   0.000D+00 0.100D+01
 Coeff:     -0.369D-01 0.104D+01
 Gap=     0.567 Goal=   None    Shift=    0.000
 RMSDP=1.50D-03 MaxDP=1.56D-02 DE=-1.39D-02 OVMax= 3.64D-04

 Cycle   3  Pass 1  IDiag  1:
 E= -340.703857746878     Delta-E=       -0.000172883833 Rises=F Damp=F
 DIIS: error= 4.16D-04 at cycle   3 NSaved=   3.
 NSaved= 3 IEnMin= 3 EnMin= -340.703857746878     IErMin= 3 ErrMin= 4.16D-04
 ErrMax= 4.16D-04 EMaxC= 1.00D-01 BMatC= 7.19D-06 BMatP= 1.67D-04
 IDIUse=3 WtCom= 9.96D-01 WtEn= 4.16D-03
 Coeff-Com: -0.191D-02 0.107D+00 0.895D+00
 Coeff-En:   0.000D+00 0.000D+00 0.100D+01
 Coeff:     -0.190D-02 0.107D+00 0.895D+00
 Gap=     0.565 Goal=   None    Shift=    0.000
 RMSDP=2.92D-04 MaxDP=1.29D-03 DE=-1.73D-04 OVMax= 1.18D-03

 Cycle   4  Pass 1  IDiag  1:
 E= -340.703871826816     Delta-E=       -0.000014079938 Rises=F Damp=F
 DIIS: error= 2.26D-04 at cycle   4 NSaved=   4.
 NSaved= 4 IEnMin= 4 EnMin= -340.703871826816     IErMin= 4 ErrMin= 2.26D-04
 ErrMax= 2.26D-04 EMaxC= 1.00D-01 BMatC= 6.19D-07 BMatP= 7.19D-06
 IDIUse=3 WtCom= 9.98D-01 WtEn= 2.26D-03
 Coeff-Com:  0.157D-02-0.746D-01-0.185D+00 0.126D+01
 Coeff-En:   0.000D+00 0.000D+00 0.000D+00 0.100D+01
 Coeff:      0.157D-02-0.745D-01-0.185D+00 0.126D+01
 Gap=     0.566 Goal=   None    Shift=    0.000
 RMSDP=1.88D-04 MaxDP=1.50D-03 DE=-1.41D-05 OVMax= 3.24D-04

 Cycle   5  Pass 1  IDiag  1:
 E= -340.703874045687     Delta-E=       -0.000002218870 Rises=F Damp=F
 DIIS: error= 3.19D-05 at cycle   5 NSaved=   5.
 NSaved= 5 IEnMin= 5 EnMin= -340.703874045687     IErMin= 5 ErrMin= 3.19D-05
 ErrMax= 3.19D-05 EMaxC= 1.00D-01 BMatC= 1.74D-08 BMatP= 6.19D-07
 IDIUse=1 WtCom= 1.00D+00 WtEn= 0.00D+00
 Coeff-Com: -0.288D-03 0.143D-01 0.103D-01-0.294D+00 0.127D+01
 Coeff:     -0.288D-03 0.143D-01 0.103D-01-0.294D+00 0.127D+01
 Gap=     0.566 Goal=   None    Shift=    0.000
 RMSDP=2.93D-05 MaxDP=1.27D-04 DE=-2.22D-06 OVMax= 5.22D-05

 Cycle   6  Pass 1  IDiag  1:
 E= -340.703874115719     Delta-E=       -0.000000070032 Rises=F Damp=F
 DIIS: error= 3.26D-06 at cycle   6 NSaved=   6.
 NSaved= 6 IEnMin= 6 EnMin= -340.703874115719     IErMin= 6 ErrMin= 3.26D-06
 ErrMax= 3.26D-06 EMaxC= 1.00D-01 BMatC= 2.85D-10 BMatP= 1.74D-08
 IDIUse=1 WtCom= 1.00D+00 WtEn= 0.00D+00
 Coeff-Com:  0.205D-04-0.156D-02 0.175D-02 0.411D-01-0.300D+00 0.126D+01
 Coeff:      0.205D-04-0.156D-02 0.175D-02 0.411D-01-0.300D+00 0.126D+01
 Gap=     0.566 Goal=   None    Shift=    0.000
 RMSDP=3.11D-06 MaxDP=1.31D-05 DE=-7.00D-08 OVMax= 1.78D-06

 Cycle   7  Pass 1  IDiag  1:
 E= -340.703874116645     Delta-E=       -0.000000000926 Rises=F Damp=F
 DIIS: error= 2.47D-07 at cycle   7 NSaved=   7.
 NSaved= 7 IEnMin= 7 EnMin= -340.703874116645     IErMin= 7 ErrMin= 2.47D-07
 ErrMax= 2.47D-07 EMaxC= 1.00D-01 BMatC= 1.35D-12 BMatP= 2.85D-10
 IDIUse=1 WtCom= 1.00D+00 WtEn= 0.00D+00
 Coeff-Com: -0.199D-05 0.173D-03-0.415D-03-0.496D-02 0.430D-01-0.221D+00
 Coeff-Com:  0.118D+01
 Coeff:     -0.199D-05 0.173D-03-0.415D-03-0.496D-02 0.430D-01-0.221D+00
 Coeff:      0.118D+01
 Gap=     0.566 Goal=   None    Shift=    0.000
 RMSDP=2.35D-07 MaxDP=1.89D-06 DE=-9.26D-10 OVMax= 3.26D-07

 Cycle   8  Pass 1  IDiag  1:
 E= -340.703874116649     Delta-E=       -0.000000000004 Rises=F Damp=F
 DIIS: error= 3.77D-08 at cycle   8 NSaved=   8.
 NSaved= 8 IEnMin= 8 EnMin= -340.703874116649     IErMin= 8 ErrMin= 3.77D-08
 ErrMax= 3.77D-08 EMaxC= 1.00D-01 BMatC= 2.54D-14 BMatP= 1.35D-12
 IDIUse=1 WtCom= 1.00D+00 WtEn= 0.00D+00
 Coeff-Com:  0.264D-06-0.284D-04 0.931D-04 0.839D-03-0.798D-02 0.443D-01
 Coeff-Com: -0.308D+00 0.127D+01
 Coeff:      0.264D-06-0.284D-04 0.931D-04 0.839D-03-0.798D-02 0.443D-01
 Coeff:     -0.308D+00 0.127D+01
 Gap=     0.566 Goal=   None    Shift=    0.000
 RMSDP=4.11D-08 MaxDP=3.36D-07 DE=-3.98D-12 OVMax= 4.30D-08

 Cycle   9  Pass 1  IDiag  1:
 E= -340.703874116649     Delta-E=        0.000000000001 Rises=F Damp=F
 DIIS: error= 4.04D-09 at cycle   9 NSaved=   9.
 NSaved= 9 IEnMin= 8 EnMin= -340.703874116649     IErMin= 9 ErrMin= 4.04D-09
 ErrMax= 4.04D-09 EMaxC= 1.00D-01 BMatC= 3.28D-16 BMatP= 2.54D-14
 IDIUse=1 WtCom= 1.00D+00 WtEn= 0.00D+00
 Coeff-Com: -0.381D-07 0.354D-05-0.158D-04-0.102D-03 0.108D-02-0.643D-02
 Coeff-Com:  0.519D-01-0.296D+00 0.125D+01
 Coeff:     -0.381D-07 0.354D-05-0.158D-04-0.102D-03 0.108D-02-0.643D-02
 Coeff:      0.519D-01-0.296D+00 0.125D+01
 Gap=     0.566 Goal=   None    Shift=    0.000
 RMSDP=3.19D-09 MaxDP=2.75D-08 DE= 5.68D-13 OVMax= 4.58D-09

 SCF Done:  E(RHF) =  -340.703874117     A.U. after    9 cycles
             Convg  =    0.3194D-08             -V/T =  2.0006
 KE= 3.404892559628D+02 PE=-8.465592206378D+02 EE= 1.478398099127D+02
 Leave Link  502 at Sun Nov 26 22:53:58 2023, MaxMem=    6291456 cpu:       0.0
 (Enter C:\G09W\l601.exe)
 Copying SCF densities to generalized density rwf, IOpCl= 0 IROHF=0.

 **********************************************************************

            Population analysis using the SCF density.

 **********************************************************************

 Orbital symmetries:
       Occupied  (A') (A') (A") (A') (A') (A') (A') (A") (A')
       Virtual   (A") (A') (A') (A") (A') (A') (A') (A') (A") (A')
 The electronic state is 1-A'.
 Alpha  occ. eigenvalues --  -79.38681  -7.46160  -5.34555  -5.34555  -5.34310
 Alpha  occ. eigenvalues --   -0.87878  -0.52294  -0.52294  -0.38789
 Alpha virt. eigenvalues --    0.17794   0.17794   0.27263   0.60469   0.60469
 Alpha virt. eigenvalues --    0.63178   0.73344   1.21621   1.25695   1.25696
          Condensed to atoms (all electrons):
              1          2          3          4
     1  P   13.957238   0.319000   0.318991   0.318991
     2  H    0.319000   0.779775  -0.035093  -0.035093
     3  H    0.318991  -0.035093   0.779795  -0.035097
     4  H    0.318991  -0.035093  -0.035097   0.779795
 Mulliken atomic charges:
              1
     1  P    0.085780
     2  H   -0.028588
     3  H   -0.028596
     4  H   -0.028596
 Sum of Mulliken atomic charges =   0.00000
 Mulliken charges with hydrogens summed into heavy atoms:
              1
     1  P    0.000000
 Sum of Mulliken charges with hydrogens summed into heavy atoms =   0.00000
 Electronic spatial extent (au):  <R**2>=             56.8613
 Charge=              0.0000 electrons
 Dipole moment (field-independent basis, Debye):
    X=              0.0000    Y=             -1.1743    Z=              0.0000  Tot=              1.1743
 Quadrupole moment (field-independent basis, Debye-Ang):
   XX=            -15.4297   YY=            -17.9554   ZZ=            -15.4298
   XY=              0.0000   XZ=              0.0000   YZ=              0.0000
 Traceless Quadrupole moment (field-independent basis, Debye-Ang):
   XX=              0.8419   YY=             -1.6837   ZZ=              0.8418
   XY=              0.0000   XZ=              0.0000   YZ=              0.0000
 Octapole moment (field-independent basis, Debye-Ang**2):
  XXX=              0.5634  YYY=             -1.6974  ZZZ=              0.0000  XYY=              0.0000
  XXY=              0.2418  XXZ=              0.0000  XZZ=             -0.5633  YZZ=              0.2419
  YYZ=              0.0000  XYZ=              0.0000
 Hexadecapole moment (field-independent basis, Debye-Ang**3):
 XXXX=            -32.6592 YYYY=            -36.1776 ZZZZ=            -32.6583 XXXY=             -0.0389
 XXXZ=              0.0000 YYYX=             -0.0001 YYYZ=              0.0000 ZZZX=              0.0000
 ZZZY=              0.0000 XXYY=            -11.3480 XXZZ=            -10.8863 YYZZ=            -11.3478
 XXYZ=              0.0000 YYXZ=              0.0000 ZZXY=              0.0388
 N-N= 1.752628064564D+01 E-N=-8.465592205878D+02  KE= 3.404892559628D+02
 Symmetry A'   KE= 3.093092545625D+02
 Symmetry A"   KE= 3.118000140036D+01
 No NMR shielding tensors so no spin-rotation constants.
 Leave Link  601 at Sun Nov 26 22:53:58 2023, MaxMem=    6291456 cpu:       0.0
 (Enter C:\G09W\l607.exe)
 ******************************Gaussian NBO Version 3.1******************************
             N A T U R A L   A T O M I C   O R B I T A L   A N D
          N A T U R A L   B O N D   O R B I T A L   A N A L Y S I S
 ******************************Gaussian NBO Version 3.1******************************
       /RESON  / : Allow strongly delocalized NBO set

 Analyzing the SCF density

 Job title: PH3-NBO-RHF                                                     

 Storage needed:      1243 in NPA,      1530 in NBO (   6291389 available)


 NATURAL POPULATIONS:  Natural atomic orbital occupancies 
                                                          
   NAO  Atom  No  lang   Type(AO)    Occupancy      Energy
 ----------------------------------------------------------
     1    P    1  S      Cor( 1S)     2.00000     -79.24861
     2    P    1  S      Cor( 2S)     1.99878      -7.38991
     3    P    1  S      Val( 3S)     1.56170      -0.64551
     4    P    1  S      Ryd( 4S)     0.00076       0.76728
     5    P    1  px     Cor( 2p)     1.99983      -5.33877
     6    P    1  px     Val( 3p)     0.91793      -0.09285
     7    P    1  px     Ryd( 4p)     0.00227       0.59102
     8    P    1  py     Cor( 2p)     1.99978      -5.33748
     9    P    1  py     Val( 3p)     1.51229      -0.19697
    10    P    1  py     Ryd( 4p)     0.00631       0.62319
    11    P    1  pz     Cor( 2p)     1.99983      -5.33877
    12    P    1  pz     Val( 3p)     0.91794      -0.09285
    13    P    1  pz     Ryd( 4p)     0.00227       0.59102

    14    H    2  S      Val( 1S)     1.02523      -0.15444
    15    H    2  S      Ryd( 2S)     0.00153       1.10354

    16    H    3  S      Val( 1S)     1.02523      -0.15444
    17    H    3  S      Ryd( 2S)     0.00153       1.10353

    18    H    4  S      Val( 1S)     1.02523      -0.15444
    19    H    4  S      Ryd( 2S)     0.00153       1.10353

 WARNING:  1 low occupancy (<1.9990e) core orbital  found on  P    1


 Summary of Natural Population Analysis:                  
                                                          
                                       Natural Population 
                Natural  -----------------------------------------------
    Atom  No    Charge         Core      Valence    Rydberg      Total
 -----------------------------------------------------------------------
      P    1    0.08029      9.99823     4.90986    0.01162    14.91971
      H    2   -0.02676      0.00000     1.02523    0.00153     1.02676
      H    3   -0.02676      0.00000     1.02523    0.00153     1.02676
      H    4   -0.02676      0.00000     1.02523    0.00153     1.02676
 =======================================================================
   * Total *    0.00000      9.99823     7.98555    0.01622    18.00000

                                 Natural Population      
 --------------------------------------------------------
   Core                       9.99823 ( 99.9823% of  10)
   Valence                    7.98555 ( 99.8193% of   8)
   Natural Minimal Basis     17.98378 ( 99.9099% of  18)
   Natural Rydberg Basis      0.01622 (  0.0901% of  18)
 --------------------------------------------------------

    Atom  No          Natural Electron Configuration
 ----------------------------------------------------------------------------
      P    1      [core]3S( 1.56)3p( 3.35)4p( 0.01)
      H    2            1S( 1.03)
      H    3            1S( 1.03)
      H    4            1S( 1.03)


 NATURAL BOND ORBITAL ANALYSIS:

                       Occupancies       Lewis Structure    Low   High
           Occ.    -------------------  -----------------   occ   occ
  Cycle   Thresh.   Lewis   Non-Lewis     CR  BD  3C  LP    (L)   (NL)   Dev
 =============================================================================
   1(1)    1.90    17.98660   0.01340      5   3   0   1     0      0    0.00
 -----------------------------------------------------------------------------

 Structure accepted: No low occupancy Lewis orbitals

 WARNING:  1 low occupancy (<1.9990e) core orbital  found on  P    1

 --------------------------------------------------------
   Core                      9.99824 ( 99.982% of  10)
   Valence Lewis             7.98836 ( 99.855% of   8)
  ==================       ============================
   Total Lewis              17.98660 ( 99.926% of  18)
  -----------------------------------------------------
   Valence non-Lewis         0.00876 (  0.049% of  18)
   Rydberg non-Lewis         0.00464 (  0.026% of  18)
  ==================       ============================
   Total non-Lewis           0.01340 (  0.074% of  18)
 --------------------------------------------------------


       (Occupancy)   Bond orbital/ Coefficients/ Hybrids
 ---------------------------------------------------------------------------------
     1. (1.99613) BD ( 1) P   1 - H   2  
                ( 48.71%)   0.6979* P   1 s( 15.87%)p 5.30( 84.13%)
                                            0.0000  0.0003  0.3981  0.0125  0.0001
                                           -0.8155 -0.0406 -0.0001 -0.4177  0.0128
                                            0.0000  0.0000  0.0000
                ( 51.29%)   0.7162* H   2 s(100.00%)
                                            1.0000  0.0023
     2. (1.99613) BD ( 1) P   1 - H   3  
                ( 48.71%)   0.6979* P   1 s( 15.87%)p 5.30( 84.13%)
                                            0.0000  0.0003  0.3982  0.0125  0.0000
                                            0.4077  0.0203 -0.0001 -0.4177  0.0128
                                           -0.0001  0.7062  0.0351
                ( 51.29%)   0.7162* H   3 s(100.00%)
                                            1.0000  0.0023
     3. (1.99613) BD ( 1) P   1 - H   4  
                ( 48.71%)   0.6979* P   1 s( 15.87%)p 5.30( 84.13%)
                                            0.0000  0.0003  0.3982  0.0125  0.0000
                                            0.4077  0.0203 -0.0001 -0.4177  0.0128
                                            0.0001 -0.7062 -0.0351
                ( 51.29%)   0.7162* H   4 s(100.00%)
                                            1.0000  0.0023
     4. (2.00000) CR ( 1) P   1           s(100.00%)
                                            1.0000  0.0000  0.0000  0.0000  0.0000
                                            0.0000  0.0000  0.0000  0.0000  0.0000
                                            0.0000  0.0000  0.0000
     5. (1.99878) CR ( 2) P   1           s(100.00%)p 0.00(  0.00%)
                                            0.0000  1.0000 -0.0004  0.0000  0.0000
                                            0.0000  0.0000  0.0000  0.0004  0.0000
                                            0.0000  0.0000  0.0000
     6. (1.99983) CR ( 3) P   1           s(  0.00%)p 1.00(100.00%)
                                            0.0000  0.0000  0.0000  0.0000  1.0000
                                            0.0001  0.0000  0.0000  0.0000  0.0000
                                            0.0000  0.0000  0.0000
     7. (1.99979) CR ( 4) P   1           s(  0.00%)p 1.00(100.00%)
                                            0.0000  0.0000  0.0001  0.0000  0.0000
                                            0.0000  0.0000  1.0000 -0.0001  0.0000
                                            0.0000  0.0000  0.0000
     8. (1.99983) CR ( 5) P   1           s(  0.00%)p 1.00(100.00%)
                                            0.0000  0.0000  0.0000  0.0000  0.0000
                                            0.0000  0.0000  0.0000  0.0000  0.0000
                                            1.0000  0.0001  0.0000
     9. (1.99998) LP ( 1) P   1           s( 52.39%)p 0.91( 47.61%)
                                            0.0000  0.0000  0.7238 -0.0111  0.0000
                                            0.0000  0.0000  0.0000  0.6879 -0.0537
                                            0.0000  0.0000  0.0000
    10. (0.00001) RY*( 1) P   1           s( 99.95%)p 0.00(  0.05%)
    11. (0.00000) RY*( 2) P   1           s(  0.00%)p 1.00(100.00%)
    12. (0.00001) RY*( 3) P   1           s(  0.06%)p99.99( 99.94%)
    13. (0.00000) RY*( 4) P   1           s(  0.00%)p 1.00(100.00%)
    14. (0.00154) RY*( 1) H   2           s(100.00%)
                                           -0.0023  1.0000
    15. (0.00154) RY*( 1) H   3           s(100.00%)
                                           -0.0023  1.0000
    16. (0.00154) RY*( 1) H   4           s(100.00%)
                                           -0.0023  1.0000
    17. (0.00292) BD*( 1) P   1 - H   2  
                ( 51.29%)   0.7162* P   1 s( 15.87%)p 5.30( 84.13%)
                                            0.0000  0.0003  0.3981  0.0125  0.0001
                                           -0.8155 -0.0406 -0.0001 -0.4177  0.0128
                                            0.0000  0.0000  0.0000
                ( 48.71%)  -0.6979* H   2 s(100.00%)
                                            1.0000  0.0023
    18. (0.00292) BD*( 1) P   1 - H   3  
                ( 51.29%)   0.7162* P   1 s( 15.87%)p 5.30( 84.13%)
                                            0.0000  0.0003  0.3982  0.0125  0.0000
                                            0.4077  0.0203 -0.0001 -0.4177  0.0128
                                           -0.0001  0.7062  0.0351
                ( 48.71%)  -0.6979* H   3 s(100.00%)
                                            1.0000  0.0023
    19. (0.00292) BD*( 1) P   1 - H   4  
                ( 51.29%)   0.7162* P   1 s( 15.87%)p 5.30( 84.13%)
                                            0.0000  0.0003  0.3982  0.0125  0.0000
                                            0.4077  0.0203 -0.0001 -0.4177  0.0128
                                            0.0001 -0.7062 -0.0351
                ( 48.71%)  -0.6979* H   4 s(100.00%)
                                            1.0000  0.0023


 NHO Directionality and "Bond Bending" (deviations from line of nuclear centers)

         [Thresholds for printing:  angular deviation  >  1.0 degree]
                                    hybrid p-character > 25.0%
                                    orbital occupancy  >  0.10e

                                Line of Centers        Hybrid 1              Hybrid 2
                                ---------------  -------------------   ------------------
                NBO               Theta   Phi    Theta   Phi    Dev    Theta   Phi    Dev
 ========================================================================================
     1. BD (   1) P   1 - H   2    90.0  212.9    90.0  205.3   7.6      --     --    --
     2. BD (   1) P   1 - H   3    43.3  307.7    38.5  316.6   7.6      --     --    --
     3. BD (   1) P   1 - H   4   136.7  307.7   141.5  316.6   7.6      --     --    --
     9. LP (   1) P   1             --     --     90.0   90.0   --       --     --    --


 Second Order Perturbation Theory Analysis of Fock Matrix in NBO Basis

     Threshold for printing:   0.50 kcal/mol
                                                                              E(2)  E(j)-E(i) F(i,j)
         Donor NBO (i)                     Acceptor NBO (j)                 kcal/mol   a.u.    a.u. 
 ===================================================================================================

 within unit  1
   1. BD (   1) P   1 - H   2        / 18. BD*(   1) P   1 - H   3            0.87    1.00    0.026
   1. BD (   1) P   1 - H   2        / 19. BD*(   1) P   1 - H   4            0.87    1.00    0.026
   2. BD (   1) P   1 - H   3        / 17. BD*(   1) P   1 - H   2            0.87    1.00    0.026
   2. BD (   1) P   1 - H   3        / 19. BD*(   1) P   1 - H   4            0.87    1.00    0.026
   3. BD (   1) P   1 - H   4        / 17. BD*(   1) P   1 - H   2            0.87    1.00    0.026
   3. BD (   1) P   1 - H   4        / 18. BD*(   1) P   1 - H   3            0.87    1.00    0.026
   5. CR (   2) P   1                / 14. RY*(   1) H   2                    1.59    8.49    0.104
   5. CR (   2) P   1                / 15. RY*(   1) H   3                    1.59    8.49    0.104
   5. CR (   2) P   1                / 16. RY*(   1) H   4                    1.59    8.49    0.104


 Natural Bond Orbitals (Summary):

                                                            Principal Delocalizations
           NBO                        Occupancy    Energy   (geminal,vicinal,remote)
 ====================================================================================
 Molecular unit  1  (H3P)
     1. BD (   1) P   1 - H   2          1.99613    -0.65134  18(g),19(g)
     2. BD (   1) P   1 - H   3          1.99613    -0.65136  17(g),19(g)
     3. BD (   1) P   1 - H   4          1.99613    -0.65136  17(g),18(g)
     4. CR (   1) P   1                  2.00000   -79.24861   
     5. CR (   2) P   1                  1.99878    -7.38920  15(v),16(v),14(v)
     6. CR (   3) P   1                  1.99983    -5.33880   
     7. CR (   4) P   1                  1.99979    -5.33745   
     8. CR (   5) P   1                  1.99983    -5.33880   
     9. LP (   1) P   1                  1.99998    -0.57654   
    10. RY*(   1) P   1                  0.00001     0.76479   
    11. RY*(   2) P   1                  0.00000     0.58005   
    12. RY*(   3) P   1                  0.00001     0.62932   
    13. RY*(   4) P   1                  0.00000     0.58005   
    14. RY*(   1) H   2                  0.00154     1.10257   
    15. RY*(   1) H   3                  0.00154     1.10256   
    16. RY*(   1) H   4                  0.00154     1.10256   
    17. BD*(   1) P   1 - H   2          0.00292     0.35320   
    18. BD*(   1) P   1 - H   3          0.00292     0.35322   
    19. BD*(   1) P   1 - H   4          0.00292     0.35322   
       -------------------------------
              Total Lewis   17.98660  ( 99.9256%)
        Valence non-Lewis    0.00876  (  0.0487%)
        Rydberg non-Lewis    0.00464  (  0.0258%)
       -------------------------------
            Total unit  1   18.00000  (100.0000%)
           Charge unit  1    0.00000
 Sorting of NBOs:                    4    5    8    6    7    2    3    1    9   17
 Sorting of NBOs:                   19   18   11   13   12   10   16   15   14
 Reordering of NBOs for storage:     4    5    8    6    7    2    3    1    9   17
 Reordering of NBOs for storage:    19   18   11   13   12   10   16   15   14
 Labels of output orbitals:  CR  CR  CR  CR  CR  BD  BD  BD  LP  BD* BD* BD* RY* RY* RY* RY* RY* RY* RY* 
 Leave Link  607 at Sun Nov 26 22:53:58 2023, MaxMem=    6291456 cpu:       0.0
 (Enter C:\G09W\l9999.exe)
 1|1|UNPC-DESKTOP-FN8L32V|SP|RHF|3-21G|H3P1|FELIP|26-Nov-2023|0||#P rhf
 /3-21G pop=(nbo,savenbo) DENSITY=CURRENT FCHK||PH3-NBO-RHF||0,1|P,0,0.
 ,0.,0.|H,0,0.,-1.1932,-0.7717|H,0,1.0333,0.5966,-0.7717|H,0,-1.0333,0.
 5966,-0.7717||Version=IA32W-G09RevB.01|State=1-A'|HF=-340.7038741|RMSD
 =3.194e-009|Dipole=0.,0.0000063,-0.4620018|Quadrupole=0.6258778,0.6259
 326,-1.2518103,0.,0.,-0.0000111|PG=CS [SG(H1P1),X(H2)]||@


 A HARD FALL SHOULD MEAN A HIGH BOUNCE 
 IF ONE IS MADE OF THE RIGHT MATERIAL.

                -- THE CHEMIST ANALYST, MARCH 1950
 Coordinates translated and rotated.
 Coordinates match /B/ after translation and rotation.
 Rotating derivatives, DoTrsp=T IDiff= 1 LEDeriv=    629 LFDPrp=       0 LDFDPr=       0.
 Job cpu time:  0 days  0 hours  0 minutes  0.0 seconds.
 File lengths (MBytes):  RWF=      5 Int=      0 D2E=      0 Chk=      1 Scr=      1
 Normal termination of Gaussian 09 at Sun Nov 26 22:53:58 2023.
