 Entering Link 1 = C:\G09W\l1.exe PID=     20920.
  
 Copyright (c) 1988,1990,1992,1993,1995,1998,2003,2009,2010,
            Gaussian, Inc.  All Rights Reserved.
  
 This is part of the Gaussian(R) 09 program.  It is based on
 the Gaussian(R) 03 system (copyright 2003, Gaussian, Inc.),
 the Gaussian(R) 98 system (copyright 1998, Gaussian, Inc.),
 the Gaussian(R) 94 system (copyright 1995, Gaussian, Inc.),
 the Gaussian 92(TM) system (copyright 1992, Gaussian, Inc.),
 the Gaussian 90(TM) system (copyright 1990, Gaussian, Inc.),
 the Gaussian 88(TM) system (copyright 1988, Gaussian, Inc.),
 the Gaussian 86(TM) system (copyright 1986, Carnegie Mellon
 University), and the Gaussian 82(TM) system (copyright 1983,
 Carnegie Mellon University). Gaussian is a federally registered
 trademark of Gaussian, Inc.
  
 This software contains proprietary and confidential information,
 including trade secrets, belonging to Gaussian, Inc.
  
 This software is provided under written license and may be
 used, copied, transmitted, or stored only in accord with that
 written license.
  
 The following legend is applicable only to US Government
 contracts under FAR:
  
                    RESTRICTED RIGHTS LEGEND
  
 Use, reproduction and disclosure by the US Government is
 subject to restrictions as set forth in subparagraphs (a)
 and (c) of the Commercial Computer Software - Restricted
 Rights clause in FAR 52.227-19.
  
 Gaussian, Inc.
 340 Quinnipiac St., Bldg. 40, Wallingford CT 06492
  
  
 ---------------------------------------------------------------
 Warning -- This program may not be used in any manner that
 competes with the business of Gaussian, Inc. or will provide
 assistance to any competitor of Gaussian, Inc.  The licensee
 of this program is prohibited from giving any competitor of
 Gaussian, Inc. access to this program.  By using this program,
 the user acknowledges that Gaussian, Inc. is engaged in the
 business of creating and licensing software in the field of
 computational chemistry and represents and warrants to the
 licensee that it is not a competitor of Gaussian, Inc. and that
 it will not use this program in any manner prohibited above.
 ---------------------------------------------------------------
  

 Cite this work as:
 Gaussian 09, Revision B.01,
 M. J. Frisch, G. W. Trucks, H. B. Schlegel, G. E. Scuseria, 
 M. A. Robb, J. R. Cheeseman, G. Scalmani, V. Barone, B. Mennucci, 
 G. A. Petersson, H. Nakatsuji, M. Caricato, X. Li, H. P. Hratchian, 
 A. F. Izmaylov, J. Bloino, G. Zheng, J. L. Sonnenberg, M. Hada, 
 M. Ehara, K. Toyota, R. Fukuda, J. Hasegawa, M. Ishida, T. Nakajima, 
 Y. Honda, O. Kitao, H. Nakai, T. Vreven, J. A. Montgomery, Jr., 
 J. E. Peralta, F. Ogliaro, M. Bearpark, J. J. Heyd, E. Brothers, 
 K. N. Kudin, V. N. Staroverov, T. Keith, R. Kobayashi, J. Normand, 
 K. Raghavachari, A. Rendell, J. C. Burant, S. S. Iyengar, J. Tomasi, 
 M. Cossi, N. Rega, J. M. Millam, M. Klene, J. E. Knox, J. B. Cross, 
 V. Bakken, C. Adamo, J. Jaramillo, R. Gomperts, R. E. Stratmann, 
 O. Yazyev, A. J. Austin, R. Cammi, C. Pomelli, J. W. Ochterski, 
 R. L. Martin, K. Morokuma, V. G. Zakrzewski, G. A. Voth, 
 P. Salvador, J. J. Dannenberg, S. Dapprich, A. D. Daniels, 
 O. Farkas, J. B. Foresman, J. V. Ortiz, J. Cioslowski, 
 and D. J. Fox, Gaussian, Inc., Wallingford CT, 2010.
 
 ******************************************
 Gaussian 09:  IA32W-G09RevB.01 12-Aug-2010
                07-Nov-2023 
 ******************************************
 %chk=PH3-MLLIKEN-HF.chk
 %mem=6MW
 %nproc=1
 Will use up to    1 processors via shared memory.
 ------------------------
 # hf/3-21g pop=full freq
 ------------------------
 1/10=4,30=1,38=1/1,3;
 2/12=2,17=6,18=5,40=1/2;
 3/5=5,11=9,16=1,25=1,30=1,71=2/1,2,3;
 4//1;
 5/5=2,38=5,98=1/2;
 8/6=4,10=90,11=11/1;
 10/13=10,15=4/2;
 11/6=3,8=1,9=11,15=111,16=1/1,2,10;
 10/6=1/2;
 6/7=3,18=1,28=1/1;
 7/8=1,10=1,25=1/1,2,3,16;
 1/10=4,30=1/3;
 99//99;
 ----------------
 PH3-MULLIKEN-RHF
 ----------------
 Symbolic Z-matrix:
 Charge =  0 Multiplicity = 1
 P1                    0.        0.        0. 
 H2                    0.       -1.1932   -0.7717 
 H3                    1.0333    0.5966   -0.7717 
 H4                   -1.0333    0.5966   -0.7717 
 

 GradGradGradGradGradGradGradGradGradGradGradGradGradGradGradGradGradGrad
 Berny optimization.
 Initialization pass.
 Trust Radius=3.00D-01 FncErr=1.00D-07 GrdErr=1.00D-07
 Number of steps in this run=      2 maximum allowed number of steps=      2.
 GradGradGradGradGradGradGradGradGradGradGradGradGradGradGradGradGradGrad

                          Input orientation:                          
 ---------------------------------------------------------------------
 Center     Atomic      Atomic             Coordinates (Angstroms)
 Number     Number       Type             X           Y           Z
 ---------------------------------------------------------------------
      1         15           0        0.000000    0.000000    0.000000
      2          1           0        0.000000   -1.193200   -0.771700
      3          1           0        1.033300    0.596600   -0.771700
      4          1           0       -1.033300    0.596600   -0.771700
 ---------------------------------------------------------------------
                    Distance matrix (angstroms):
                    1          2          3          4
     1  P    0.000000
     2  H    1.421002   0.000000
     3  H    1.420972   2.066662   0.000000
     4  H    1.420972   2.066662   2.066600   0.000000
 Stoichiometry    H3P
 Framework group  CS[SG(HP),X(H2)]
 Deg. of freedom     4
 Full point group                 CS      NOp   2
 Largest Abelian subgroup         CS      NOp   2
 Largest concise Abelian subgroup CS      NOp   2
                         Standard orientation:                         
 ---------------------------------------------------------------------
 Center     Atomic      Atomic             Coordinates (Angstroms)
 Number     Number       Type             X           Y           Z
 ---------------------------------------------------------------------
      1         15           0        0.000000    0.128617    0.000000
      2          1           0       -1.193200   -0.643083    0.000000
      3          1           0        0.596600   -0.643083    1.033300
      4          1           0        0.596600   -0.643083   -1.033300
 ---------------------------------------------------------------------
 Rotational constants (GHZ):    133.2559896    133.2499140    117.4090990
 Standard basis: 3-21G (6D, 7F)
 There are    14 symmetry adapted basis functions of A'  symmetry.
 There are     5 symmetry adapted basis functions of A"  symmetry.
 Integral buffers will be    262144 words long.
 Raffenetti 1 integral format.
 Two-electron integral symmetry is turned on.
    19 basis functions,    36 primitive gaussians,    19 cartesian basis functions
     9 alpha electrons        9 beta electrons
       nuclear repulsion energy        17.5262806456 Hartrees.
 NAtoms=    4 NActive=    4 NUniq=    3 SFac= 1.78D+00 NAtFMM=   50 NAOKFM=F Big=F
 One-electron integrals computed using PRISM.
 NBasis=    19 RedAO= T  NBF=    14     5
 NBsUse=    19 1.00D-06 NBFU=    14     5
 Harris functional with IExCor=  205 diagonalized for initial guess.
 ExpMin= 1.23D-01 ExpMax= 1.05D+03 ExpMxC= 1.05D+03 IAcc=1 IRadAn=         1 AccDes= 0.00D+00
 HarFok:  IExCor=  205 AccDes= 0.00D+00 IRadAn=         1 IDoV= 1
 ScaDFX=  1.000000  1.000000  1.000000  1.000000
 FoFCou: FMM=F IPFlag=           0 FMFlag=      100000 FMFlg1=           0
         NFxFlg=           0 DoJE=T BraDBF=F KetDBF=T FulRan=T
         Omega=  0.000000  0.000000  1.000000  0.000000  0.000000 ICntrl=     500 IOpCl=  0
         NMat0=    1 NMatS0=    1 NMatT0=    0 NMatD0=    1 NMtDS0=    0 NMtDT0=    0
         I1Cent=           4 NGrid=           0.
 Petite list used in FoFCou.
 Initial guess orbital symmetries:
       Occupied  (A') (A') (A") (A') (A') (A') (A') (A") (A')
       Virtual   (A") (A') (A') (A") (A') (A') (A') (A') (A") (A')
 The electronic state of the initial guess is 1-A'.
 Requested convergence on RMS density matrix=1.00D-08 within 128 cycles.
 Requested convergence on MAX density matrix=1.00D-06.
 Requested convergence on             energy=1.00D-06.
 No special actions if energy rises.
 Keep R1 ints in memory in canonical form, NReq=837892.
 SCF Done:  E(RHF) =  -340.703874117     A.U. after    9 cycles
             Convg  =    0.3194D-08             -V/T =  2.0006
 Range of M.O.s used for correlation:     1    19
 NBasis=    19 NAE=     9 NBE=     9 NFC=     0 NFV=     0
 NROrb=     19 NOA=     9 NOB=     9 NVA=    10 NVB=    10
          Differentiating once with respect to electric field.
                with respect to dipole field.
          Electric field/nuclear overlap derivatives assumed to be zero.
          Keep R1 ints in memory in canonical form, NReq=818408.
          There are     3 degrees of freedom in the 1st order CPHF.  IDoFFX=0.
      3 vectors produced by pass  0 Test12= 3.00D-15 3.33D-08 XBig12= 6.56D+00 1.75D+00.
 AX will form     3 AO Fock derivatives at one time.
      3 vectors produced by pass  1 Test12= 3.00D-15 3.33D-08 XBig12= 1.31D-01 2.37D-01.
      3 vectors produced by pass  2 Test12= 3.00D-15 3.33D-08 XBig12= 3.56D-03 3.47D-02.
      3 vectors produced by pass  3 Test12= 3.00D-15 3.33D-08 XBig12= 3.60D-05 2.82D-03.
      3 vectors produced by pass  4 Test12= 3.00D-15 3.33D-08 XBig12= 3.13D-07 3.04D-04.
      3 vectors produced by pass  5 Test12= 3.00D-15 3.33D-08 XBig12= 2.98D-09 2.05D-05.
      3 vectors produced by pass  6 Test12= 3.00D-15 3.33D-08 XBig12= 1.42D-11 2.01D-06.
      1 vectors produced by pass  7 Test12= 3.00D-15 3.33D-08 XBig12= 3.69D-14 1.10D-07.
 Inverted reduced A of dimension    22 with in-core refinement.
 End of Minotr Frequency-dependent properties file   721 does not exist.
 End of Minotr Frequency-dependent properties file   722 does not exist.
 Symmetrizing basis deriv contribution to polar:
 IMax=3 JMax=2 DiffMx= 0.00D+00
 G2DrvN: will do     5 centers at a time, making    1 passes doing MaxLOS=1.
 Calling FoFCou, ICntrl=  3107 FMM=F I1Cent=   0 AccDes= 0.00D+00.
 FoFDir/FoFCou used for L=0 through L=1.
 End of G2Drv Frequency-dependent properties file   721 does not exist.
 End of G2Drv Frequency-dependent properties file   722 does not exist.
          IDoAtm=1111
          Differentiating once with respect to electric field.
                with respect to dipole field.
          Differentiating once with respect to nuclear coordinates.
          Keep R1 ints in memory in canonical form, NReq=818456.
          There are    12 degrees of freedom in the 1st order CPHF.  IDoFFX=4.
 Will reuse    3 saved solutions.
      9 vectors produced by pass  0 Test12= 7.50D-16 8.33D-09 XBig12= 2.54D-02 6.98D-02.
 AX will form     9 AO Fock derivatives at one time.
      9 vectors produced by pass  1 Test12= 7.50D-16 8.33D-09 XBig12= 5.14D-04 1.76D-02.
      9 vectors produced by pass  2 Test12= 7.50D-16 8.33D-09 XBig12= 9.58D-06 1.66D-03.
      9 vectors produced by pass  3 Test12= 7.50D-16 8.33D-09 XBig12= 1.36D-07 1.71D-04.
      9 vectors produced by pass  4 Test12= 7.50D-16 8.33D-09 XBig12= 7.81D-10 1.63D-05.
      6 vectors produced by pass  5 Test12= 7.50D-16 8.33D-09 XBig12= 2.83D-12 1.04D-06.
      1 vectors produced by pass  6 Test12= 7.50D-16 8.33D-09 XBig12= 6.91D-15 4.25D-08.
 Inverted reduced A of dimension    52 with in-core refinement.
 Isotropic polarizability for W=    0.000000       20.05 Bohr**3.
 End of Minotr Frequency-dependent properties file   721 does not exist.
 End of Minotr Frequency-dependent properties file   722 does not exist.

 **********************************************************************

            Population analysis using the SCF density.

 **********************************************************************

 Orbital symmetries:
       Occupied  (A') (A') (A") (A') (A') (A') (A') (A") (A')
       Virtual   (A") (A') (A') (A") (A') (A') (A') (A') (A") (A')
 The electronic state is 1-A'.
 Alpha  occ. eigenvalues --  -79.38681  -7.46160  -5.34555  -5.34555  -5.34310
 Alpha  occ. eigenvalues --   -0.87878  -0.52294  -0.52294  -0.38789
 Alpha virt. eigenvalues --    0.17794   0.17794   0.27263   0.60469   0.60469
 Alpha virt. eigenvalues --    0.63178   0.73344   1.21621   1.25695   1.25696
     Molecular Orbital Coefficients:
                           1         2         3         4         5
                           O         O         O         O         O
     Eigenvalues --   -79.38681  -7.46160  -5.34555  -5.34555  -5.34310
   1 1   P  1S          0.98703  -0.29567   0.00000   0.00000  -0.00442
   2        2S          0.04868   0.99743   0.00000   0.00000   0.01533
   3        2PX         0.00000   0.00000   0.00000   0.97290   0.00005
   4        2PY        -0.00019  -0.01281   0.00000  -0.00005   0.97331
   5        2PZ         0.00000   0.00000   0.97290   0.00000   0.00000
   6        3S         -0.01546   0.13022   0.00000   0.00000  -0.00559
   7        3PX         0.00000   0.00000   0.00000   0.08788   0.00000
   8        3PY         0.00037  -0.00568   0.00000   0.00000   0.08656
   9        3PZ         0.00000   0.00000   0.08788   0.00000   0.00000
  10        4S          0.01066  -0.08734   0.00000   0.00000   0.01565
  11        4PX         0.00000   0.00000   0.00000  -0.02992   0.00000
  12        4PY        -0.00212   0.02241   0.00000   0.00000  -0.03215
  13        4PZ         0.00000   0.00000  -0.02992   0.00000   0.00000
  14 2   H  1S          0.00086  -0.00462   0.00000   0.00576   0.00349
  15        2S         -0.00234   0.02182   0.00000  -0.00860  -0.00851
  16 3   H  1S          0.00086  -0.00462  -0.00499  -0.00288   0.00349
  17        2S         -0.00234   0.02182   0.00745   0.00430  -0.00851
  18 4   H  1S          0.00086  -0.00462   0.00499  -0.00288   0.00349
  19        2S         -0.00234   0.02182  -0.00745   0.00430  -0.00851
                           6         7         8         9        10
                           O         O         O         O         V
     Eigenvalues --    -0.87878  -0.52294  -0.52294  -0.38789   0.17794
   1 1   P  1S          0.06215   0.00000   0.00000   0.03105   0.00000
   2        2S         -0.33567  -0.00001   0.00000  -0.17267   0.00000
   3        2PX         0.00000   0.18457   0.00000   0.00000   0.00000
   4        2PY         0.05919   0.00000   0.00000  -0.20736   0.00000
   5        2PZ         0.00000   0.00000  -0.18457   0.00000  -0.13525
   6        3S          0.37448   0.00000   0.00000   0.21154   0.00000
   7        3PX         0.00001  -0.36412   0.00000   0.00001   0.00000
   8        3PY        -0.11287   0.00001   0.00000   0.40822   0.00000
   9        3PZ         0.00000   0.00000   0.36412   0.00000   0.24351
  10        4S          0.46580   0.00003   0.00000   0.40280   0.00000
  11        4PX         0.00000  -0.18039   0.00000   0.00001   0.00000
  12        4PY        -0.07017   0.00000   0.00000   0.44966   0.00000
  13        4PZ         0.00000   0.00000   0.18039   0.00000   1.24523
  14 2   H  1S          0.12812   0.25062   0.00000  -0.08472   0.00000
  15        2S          0.05384   0.37809   0.00000  -0.11513   0.00000
  16 3   H  1S          0.12813  -0.12531   0.21705  -0.08472  -0.12059
  17        2S          0.05384  -0.18905   0.32744  -0.11512  -0.98284
  18 4   H  1S          0.12813  -0.12531  -0.21705  -0.08472   0.12059
  19        2S          0.05384  -0.18905  -0.32744  -0.11512   0.98284
                          11        12        13        14        15
                           V         V         V         V         V
     Eigenvalues --     0.17794   0.27263   0.60469   0.60469   0.63178
   1 1   P  1S          0.00000   0.04727   0.00000   0.00000  -0.01420
   2        2S          0.00002  -0.27394   0.00000   0.00000   0.07457
   3        2PX        -0.13525  -0.00001   0.00000  -0.34315   0.00003
   4        2PY        -0.00001   0.11138   0.00000   0.00003   0.33648
   5        2PZ         0.00000   0.00000  -0.34315   0.00000   0.00000
   6        3S         -0.00002   0.37813   0.00000   0.00007  -0.19192
   7        3PX         0.24352   0.00001   0.00000   1.27148  -0.00012
   8        3PY         0.00002  -0.25227   0.00000  -0.00012  -1.26319
   9        3PZ         0.00000   0.00000   1.27147   0.00000   0.00000
  10        4S         -0.00005   1.77328   0.00000  -0.00017  -0.16615
  11        4PX         1.24524   0.00012   0.00000  -1.19242   0.00011
  12        4PY         0.00004  -1.24845   0.00000   0.00018   1.37112
  13        4PZ         0.00000   0.00000  -1.19239   0.00000   0.00000
  14 2   H  1S          0.13924  -0.03307   0.00000  -0.15744   0.08578
  15        2S          1.13493  -1.22236   0.00000   0.04259   0.15799
  16 3   H  1S         -0.06961  -0.03308   0.13636   0.07875   0.08577
  17        2S         -0.56739  -1.22252  -0.03687  -0.02121   0.15799
  18 4   H  1S         -0.06961  -0.03308  -0.13636   0.07875   0.08577
  19        2S         -0.56739  -1.22252   0.03687  -0.02121   0.15799
                          16        17        18        19
                           V         V         V         V
     Eigenvalues --     0.73344   1.21621   1.25695   1.25696
   1 1   P  1S         -0.05152  -0.02865   0.00000  -0.00001
   2        2S          0.10052   0.09492   0.00000   0.00002
   3        2PX        -0.00002  -0.00002   0.00000   0.13823
   4        2PY        -0.00290  -0.12741   0.00000  -0.00003
   5        2PZ         0.00000   0.00000  -0.13824   0.00000
   6        3S         -2.20217  -0.83242   0.00000  -0.00019
   7        3PX         0.00007   0.00006   0.00000  -0.40357
   8        3PY         0.12097   0.39223   0.00000   0.00010
   9        3PZ         0.00000   0.00000   0.40359   0.00000
  10        4S          4.22567   2.29768   0.00000   0.00050
  11        4PX        -0.00001  -0.00012   0.00000   0.76626
  12        4PY        -1.51250  -1.04588   0.00000  -0.00024
  13        4PZ         0.00000   0.00000  -0.76627   0.00000
  14 2   H  1S         -0.17714   0.73510   0.00000  -1.08726
  15        2S         -1.21430  -1.30477   0.00000   1.41600
  16 3   H  1S         -0.17714   0.73478  -0.94172   0.54385
  17        2S         -1.21435  -1.30438   1.22655  -0.70841
  18 4   H  1S         -0.17714   0.73478   0.94172   0.54385
  19        2S         -1.21435  -1.30438  -1.22655  -0.70841
     Density Matrix:
                           1         2         3         4         5
   1 1   P  1S          2.13301
   2        2S         -0.54632   2.27991
   3        2PX         0.00000   0.00000   1.96120
   4        2PY        -0.00693   0.03615   0.00000   1.98798
   5        2PZ         0.00000   0.00000   0.00000   0.00000   1.96120
   6        3S         -0.04779  -0.06636   0.00000  -0.05762   0.00000
   7        3PX         0.00000   0.00000   0.03658   0.00000   0.00000
   8        3PY         0.01465  -0.07384   0.00000  -0.01401   0.00000
   9        3PZ         0.00000   0.00000   0.00000   0.00000   0.03658
  10        4S          0.15547  -0.62452   0.00001  -0.07922   0.00000
  11        4PX         0.00000   0.00000  -0.12481   0.00000   0.00000
  12        4PY         0.00205  -0.06468   0.00000  -0.25794   0.00000
  13        4PZ         0.00000   0.00000   0.00000   0.00000  -0.12481
  14 2   H  1S          0.01506  -0.06578   0.10372   0.05721   0.00000
  15        2S         -0.01791   0.04666   0.12284   0.03699   0.00000
  16 3   H  1S          0.01506  -0.06578  -0.05186   0.05721  -0.08983
  17        2S         -0.01791   0.04666  -0.06142   0.03698  -0.10638
  18 4   H  1S          0.01506  -0.06578  -0.05186   0.05721   0.08983
  19        2S         -0.01791   0.04666  -0.06142   0.03698   0.10638
                           6         7         8         9        10
   6        3S          0.40443
   7        3PX         0.00000   0.28061
   8        3PY         0.08571   0.00000   0.37381
   9        3PZ         0.00000   0.00000   0.00000   0.28061
  10        4S          0.49603  -0.00001   0.22741   0.00000   0.77440
  11        4PX         0.00000   0.12611   0.00000   0.00000  -0.00001
  12        4PY         0.14395   0.00001   0.37713   0.00000   0.29191
  13        4PZ         0.00000   0.00000   0.00000   0.12611   0.00000
  14 2   H  1S          0.05885  -0.18150  -0.09743   0.00000   0.05205
  15        2S         -0.00253  -0.27685  -0.10787   0.00000  -0.04670
  16 3   H  1S          0.05885   0.09075  -0.09743   0.15719   0.05204
  17        2S         -0.00253   0.13843  -0.10787   0.23977  -0.04672
  18 4   H  1S          0.05885   0.09075  -0.09743  -0.15719   0.05204
  19        2S         -0.00253   0.13843  -0.10787  -0.23977  -0.04672
                          11        12        13        14        15
  11        4PX         0.06687
  12        4PY         0.00001   0.41731
  13        4PZ         0.00000   0.00000   0.06687
  14 2   H  1S         -0.09076  -0.09461   0.00000   0.17294
  15        2S         -0.13589  -0.10956   0.00000   0.22245   0.31947
  16 3   H  1S          0.04538  -0.09460   0.07860  -0.01559  -0.06167
  17        2S          0.06795  -0.10954   0.11769  -0.06167  -0.10962
  18 4   H  1S          0.04538  -0.09460  -0.07860  -0.01559  -0.06167
  19        2S          0.06795  -0.10954  -0.11769  -0.06167  -0.10962
                          16        17        18        19
  16 3   H  1S          0.17295
  17        2S          0.22246   0.31948
  18 4   H  1S         -0.01559  -0.06167   0.17295
  19        2S         -0.06167  -0.10962   0.22246   0.31948
    Full Mulliken population analysis:
                           1         2         3         4         5
   1 1   P  1S          2.13301
   2        2S         -0.13723   2.27991
   3        2PX         0.00000   0.00000   1.96120
   4        2PY         0.00000   0.00000   0.00000   1.98798
   5        2PZ         0.00000   0.00000   0.00000   0.00000   1.96120
   6        3S         -0.00162  -0.02345   0.00000   0.00000   0.00000
   7        3PX         0.00000   0.00000   0.01106   0.00000   0.00000
   8        3PY         0.00000   0.00000   0.00000  -0.00424   0.00000
   9        3PZ         0.00000   0.00000   0.00000   0.00000   0.01106
  10        4S          0.00511  -0.15926   0.00000   0.00000   0.00000
  11        4PX         0.00000   0.00000  -0.00923   0.00000   0.00000
  12        4PY         0.00000   0.00000   0.00000  -0.01908   0.00000
  13        4PZ         0.00000   0.00000   0.00000   0.00000  -0.00923
  14 2   H  1S          0.00001  -0.00047  -0.00086  -0.00031   0.00000
  15        2S         -0.00021   0.00451  -0.00397  -0.00077   0.00000
  16 3   H  1S          0.00001  -0.00047  -0.00022  -0.00031  -0.00065
  17        2S         -0.00021   0.00451  -0.00099  -0.00077  -0.00297
  18 4   H  1S          0.00001  -0.00047  -0.00022  -0.00031  -0.00065
  19        2S         -0.00021   0.00451  -0.00099  -0.00077  -0.00297
                           6         7         8         9        10
   6        3S          0.40443
   7        3PX         0.00000   0.28061
   8        3PY         0.00000   0.00000   0.37381
   9        3PZ         0.00000   0.00000   0.00000   0.28061
  10        4S          0.41368   0.00000   0.00000   0.00000   0.77440
  11        4PX         0.00000   0.08154   0.00000   0.00000   0.00000
  12        4PY         0.00000   0.00000   0.24386   0.00000   0.00000
  13        4PZ         0.00000   0.00000   0.00000   0.08154   0.00000
  14 2   H  1S          0.00865   0.04138   0.01437   0.00000   0.01254
  15        2S         -0.00101   0.08742   0.02203   0.00000  -0.02668
  16 3   H  1S          0.00865   0.01035   0.01437   0.03104   0.01254
  17        2S         -0.00100   0.02186   0.02203   0.06557  -0.02669
  18 4   H  1S          0.00865   0.01035   0.01437   0.03104   0.01254
  19        2S         -0.00100   0.02186   0.02203   0.06557  -0.02669
                          11        12        13        14        15
  11        4PX         0.06687
  12        4PY         0.00000   0.41731
  13        4PZ         0.00000   0.00000   0.06687
  14 2   H  1S          0.03024   0.02039   0.00000   0.17294
  15        2S          0.07344   0.03829   0.00000   0.14368   0.31947
  16 3   H  1S          0.00756   0.02039   0.02268  -0.00002  -0.00398
  17        2S          0.01836   0.03829   0.05508  -0.00398  -0.02711
  18 4   H  1S          0.00756   0.02039   0.02268  -0.00002  -0.00398
  19        2S          0.01836   0.03829   0.05508  -0.00398  -0.02711
                          16        17        18        19
  16 3   H  1S          0.17295
  17        2S          0.14369   0.31948
  18 4   H  1S         -0.00002  -0.00398   0.17295
  19        2S         -0.00398  -0.02711   0.14369   0.31948
     Gross orbital populations:
                           1
   1 1   P  1S          1.99865
   2        2S          1.97209
   3        2PX         1.95578
   4        2PY         1.96142
   5        2PZ         1.95578
   6        3S          0.81598
   7        3PX         0.56642
   8        3PY         0.72263
   9        3PZ         0.56643
  10        4S          0.99150
  11        4PX         0.29471
  12        4PY         0.81812
  13        4PZ         0.29471
  14 2   H  1S          0.43455
  15        2S          0.59404
  16 3   H  1S          0.43456
  17        2S          0.59403
  18 4   H  1S          0.43456
  19        2S          0.59403
          Condensed to atoms (all electrons):
              1          2          3          4
     1  P   13.957238   0.319000   0.318991   0.318991
     2  H    0.319000   0.779775  -0.035093  -0.035093
     3  H    0.318991  -0.035093   0.779795  -0.035097
     4  H    0.318991  -0.035093  -0.035097   0.779795
 Mulliken atomic charges:
              1
     1  P    0.085780
     2  H   -0.028588
     3  H   -0.028596
     4  H   -0.028596
 Sum of Mulliken atomic charges =   0.00000
 Mulliken charges with hydrogens summed into heavy atoms:
              1
     1  P    0.000000
 Sum of Mulliken charges with hydrogens summed into heavy atoms =   0.00000
 APT atomic charges:
              1
     1  P    0.369493
     2  H   -0.123163
     3  H   -0.123165
     4  H   -0.123165
 Sum of APT charges=   0.00000
 APT Atomic charges with hydrogens summed into heavy atoms:
              1
     1  P    0.000000
     2  H    0.000000
     3  H    0.000000
     4  H    0.000000
 Sum of APT charges=   0.00000
 Electronic spatial extent (au):  <R**2>=             56.8613
 Charge=              0.0000 electrons
 Dipole moment (field-independent basis, Debye):
    X=              0.0000    Y=             -1.1743    Z=              0.0000  Tot=              1.1743
 Quadrupole moment (field-independent basis, Debye-Ang):
   XX=            -15.4297   YY=            -17.9554   ZZ=            -15.4298
   XY=              0.0000   XZ=              0.0000   YZ=              0.0000
 Traceless Quadrupole moment (field-independent basis, Debye-Ang):
   XX=              0.8419   YY=             -1.6837   ZZ=              0.8418
   XY=              0.0000   XZ=              0.0000   YZ=              0.0000
 Octapole moment (field-independent basis, Debye-Ang**2):
  XXX=              0.5634  YYY=             -1.6974  ZZZ=              0.0000  XYY=              0.0000
  XXY=              0.2418  XXZ=              0.0000  XZZ=             -0.5633  YZZ=              0.2419
  YYZ=              0.0000  XYZ=              0.0000
 Hexadecapole moment (field-independent basis, Debye-Ang**3):
 XXXX=            -32.6592 YYYY=            -36.1776 ZZZZ=            -32.6583 XXXY=             -0.0389
 XXXZ=              0.0000 YYYX=             -0.0001 YYYZ=              0.0000 ZZZX=              0.0000
 ZZZY=              0.0000 XXYY=            -11.3480 XXZZ=            -10.8863 YYZZ=            -11.3478
 XXYZ=              0.0000 YYXZ=              0.0000 ZZXY=              0.0388
 N-N= 1.752628064564D+01 E-N=-8.465592205878D+02  KE= 3.404892559628D+02
 Symmetry A'   KE= 3.093092545625D+02
 Symmetry A"   KE= 3.118000140036D+01
 Orbital energies and kinetic energies (alpha):
                                 1                 2
   1         O               -79.386813        105.411342
   2         O                -7.461604         16.233029
   3         O                -5.345550         14.565077
   4         O                -5.345550         14.565077
   5         O                -5.343099         14.578757
   6         O                -0.878780          1.487163
   7         O                -0.522942          1.024907
   8         O                -0.522942          1.024924
   9         O                -0.387893          1.354351
  10         V                 0.177940          0.822684
  11         V                 0.177940          0.822693
  12         V                 0.272634          1.479140
  13         V                 0.604690          2.487964
  14         V                 0.604692          2.487976
  15         V                 0.631782          2.480344
  16         V                 0.733435          1.604315
  17         V                 1.216205          2.636839
  18         V                 1.256953          2.453234
  19         V                 1.256957          2.453225
 Total kinetic energy from orbitals= 3.404892559628D+02
  Exact polarizability:  21.949   0.000  16.264   0.000   0.000  21.948
 Approx polarizability:  17.436   0.000  12.910   0.000   0.000  17.434
 Calling FoFJK, ICntrl=    100127 FMM=F ISym2X=1 I1Cent= 0 IOpClX= 0 NMat=1 NMatS=1 NMatT=0.
 Full mass-weighted force constant matrix:
 Low frequencies --- -224.9100  -90.8472  -90.4328   -0.0052   -0.0040   -0.0035
 Low frequencies --- 1125.6264 1279.8562 1279.8658
 Harmonic frequencies (cm**-1), IR intensities (KM/Mole), Raman scattering
 activities (A**4/AMU), depolarization ratios for plane and unpolarized
 incident light, reduced masses (AMU), force constants (mDyne/A),
 and normal coordinates:
                     1                      2                      3
                    A'                     A"                     A'
 Frequencies --  1125.6264              1279.6362              1279.6467
 Red. masses --     1.0797                 1.0268                 1.0268
 Frc consts  --     0.8060                 0.9906                 0.9906
 IR Inten    --    35.7377                28.1842                28.1888
 Raman Activ --    82.8664                93.0995                93.1049
 Depolar (P) --     0.5087                 0.7500                 0.7500
 Depolar (U) --     0.6743                 0.8571                 0.8571
  Atom  AN      X      Y      Z        X      Y      Z        X      Y      Z
     1  15     0.00   0.05   0.00     0.00   0.00  -0.03     0.03   0.00   0.00
     2   1     0.28  -0.50   0.00     0.00   0.00   0.72     0.20  -0.33   0.00
     3   1    -0.14  -0.50  -0.25    -0.40  -0.29   0.03    -0.49   0.17   0.40
     4   1    -0.14  -0.50   0.25     0.40   0.29   0.03    -0.49   0.17  -0.40
                     4                      5                      6
                    A'                     A"                     A'
 Frequencies --  2404.3076              2404.4236              2433.6482
 Red. masses --     1.0394                 1.0394                 1.0279
 Frc consts  --     3.5401                 3.5404                 3.5868
 IR Inten    --   117.7152               117.7275                38.1631
 Raman Activ --   158.9160               158.9144               242.3994
 Depolar (P) --     0.7500                 0.7500                 0.0054
 Depolar (U) --     0.8571                 0.8571                 0.0108
  Atom  AN      X      Y      Z        X      Y      Z        X      Y      Z
     1  15     0.03   0.00   0.00     0.00   0.00   0.03     0.00   0.03   0.00
     2   1    -0.69  -0.43   0.00     0.00   0.00   0.03    -0.51  -0.26   0.00
     3   1    -0.15   0.21  -0.31    -0.31   0.37  -0.51     0.26  -0.27   0.44
     4   1    -0.15   0.21   0.31     0.31  -0.37  -0.51     0.26  -0.27  -0.44

 -------------------
 - Thermochemistry -
 -------------------
 Temperature   298.150 Kelvin.  Pressure   1.00000 Atm.
 Atom     1 has atomic number 15 and mass  30.97376
 Atom     2 has atomic number  1 and mass   1.00783
 Atom     3 has atomic number  1 and mass   1.00783
 Atom     4 has atomic number  1 and mass   1.00783
 Molecular mass:    33.99724 amu.
 Principal axes and moments of inertia in atomic units:
                           1         2         3
     Eigenvalues --    13.54342  13.54403  15.37139
           X            1.00000   0.00000   0.00000
           Y            0.00000   0.00000   1.00000
           Z            0.00000   1.00000   0.00000
 This molecule is an asymmetric top.
 Rotational symmetry number  1.
 Rotational temperatures (Kelvin)      6.39527     6.39498     5.63474
 Rotational constants (GHZ):         133.25599   133.24991   117.40910
 Zero-point vibrational energy      65359.7 (Joules/Mol)
                                   15.62134 (Kcal/Mol)
 Vibrational temperatures:   1619.52  1841.11  1841.12  3459.26  3459.42
          (Kelvin)           3501.47
 
 Zero-point correction=                           0.024894 (Hartree/Particle)
 Thermal correction to Energy=                    0.027774
 Thermal correction to Enthalpy=                  0.028718
 Thermal correction to Gibbs Free Energy=         0.003862
 Sum of electronic and zero-point Energies=           -340.678980
 Sum of electronic and thermal Energies=              -340.676100
 Sum of electronic and thermal Enthalpies=            -340.675156
 Sum of electronic and thermal Free Energies=         -340.700012
 
                     E (Thermal)             CV                S
                      KCal/Mol        Cal/Mol-Kelvin    Cal/Mol-Kelvin
 Total                   17.428              6.544             52.315
 Electronic               0.000              0.000              0.000
 Translational            0.889              2.981             36.502
 Rotational               0.889              2.981             15.696
 Vibrational             15.651              0.582              0.116
                       Q            Log10(Q)             Ln(Q)
 Total Bot       0.167408D-01         -1.776224         -4.089908
 Total V=0       0.472374D+10          9.674286         22.275867
 Vib (Bot)       0.357449D-11        -11.446786        -26.357199
 Vib (V=0)       0.100861D+01          0.003724          0.008576
 Electronic      0.100000D+01          0.000000          0.000000
 Translational   0.779149D+07          6.891621         15.868543
 Rotational      0.601092D+03          2.778941          6.398748
 ***** Axes restored to original set *****
 -------------------------------------------------------------------
 Center     Atomic                   Forces (Hartrees/Bohr)
 Number     Number              X              Y              Z
 -------------------------------------------------------------------
      1       15           0.000000000   -0.000007485   -0.007491372
      2        1           0.000000000   -0.004342054    0.002500352
      3        1           0.003772073    0.002174770    0.002495510
      4        1          -0.003772073    0.002174770    0.002495510
 -------------------------------------------------------------------
 Cartesian Forces:  Max     0.007491372 RMS     0.003311563

 GradGradGradGradGradGradGradGradGradGradGradGradGradGradGradGradGradGrad
 Berny optimization.
 Search for a local minimum.
 Step number   1 out of a maximum of    2
 All quantities printed in internal units (Hartrees-Bohrs-Radians)
 Second derivative matrix not updated -- analytic derivatives used.
 The second derivative matrix:
                          X1        Y1        Z1        X2        Y2
           X1           0.25415
           Y1           0.00000   0.25413
           Z1           0.00000  -0.00002   0.24212
           X2          -0.02962   0.00000   0.00000   0.03159
           Y2           0.00000  -0.13979  -0.07096   0.00000   0.16755
           Z2           0.00000  -0.10735  -0.08070   0.00000   0.08319
           X3          -0.11226  -0.04772   0.06146  -0.00098  -0.00242
           Y3          -0.04772  -0.05717   0.03549  -0.01992  -0.01388
           Z3           0.09298   0.05368  -0.08071  -0.01042  -0.00612
           X4          -0.11226   0.04772  -0.06146  -0.00098   0.00242
           Y4           0.04772  -0.05717   0.03549   0.01992  -0.01388
           Z4          -0.09298   0.05368  -0.08071   0.01042  -0.00612
                          Z2        X3        Y3        Z3        X4
           Z2           0.07190
           X3           0.00009   0.13357
           Y3           0.01208   0.05888   0.06558
           Z3           0.00440  -0.07206  -0.04160   0.07191
           X4          -0.00009  -0.02033   0.00875  -0.01051   0.13357
           Y4           0.01208  -0.00875   0.00546  -0.00597  -0.05888
           Z4           0.00440   0.01051  -0.00597   0.00440   0.07206
                          Y4        Z4
           Y4           0.06558
           Z4          -0.04160   0.07191
 ITU=  0
     Eigenvalues ---    0.07301   0.07301   0.08301   0.31442   0.32887
     Eigenvalues ---    0.32890
 Angle between quadratic step and forces=  26.26 degrees.
 ClnCor:  largest displacement from symmetrization is 1.20D-14 for atom     4.
 Linear search not attempted -- first point.
 ClnCor:  largest displacement from symmetrization is 6.94D-18 for atom     1.
 TrRot=  0.000000  0.000000 -0.024344  0.000000  0.000000  0.000000
 Variable       Old X    -DE/DX   Delta X   Delta X   Delta X     New X
                                 (Linear)    (Quad)   (Total)
    X1        0.00000   0.00000   0.00000   0.00000   0.00000   0.00000
    Y1        0.00000  -0.00001   0.00000   0.00000   0.00000   0.00000
    Z1        0.00000  -0.00749   0.00000  -0.03389  -0.05824  -0.05824
    X2        0.00000   0.00000   0.00000   0.00000   0.00000   0.00000
    Y2       -2.25482  -0.00434   0.00000  -0.05308  -0.05308  -2.30790
    Z2       -1.45830   0.00250   0.00000   0.04376   0.01941  -1.43889
    X3        1.95265   0.00377   0.00000   0.04604   0.04604   1.99870
    Y3        1.12741   0.00217   0.00000   0.02654   0.02654   1.15395
    Z3       -1.45830   0.00250   0.00000   0.04376   0.01941  -1.43889
    X4       -1.95265  -0.00377   0.00000  -0.04604  -0.04604  -1.99870
    Y4        1.12741   0.00217   0.00000   0.02654   0.02654   1.15395
    Z4       -1.45830   0.00250   0.00000   0.04376   0.01941  -1.43889
         Item               Value     Threshold  Converged?
 Maximum Force            0.007491     0.000450     NO 
 RMS     Force            0.003312     0.000300     NO 
 Maximum Displacement     0.058238     0.001800     NO 
 RMS     Displacement     0.032899     0.001200     NO 
 Predicted change in Energy=-6.374850D-04
 GradGradGradGradGradGradGradGradGradGradGradGradGradGradGradGradGradGrad

 1|1|UNPC-DESKTOP-RA5CP68|Freq|RHF|3-21G|H3P1|FELIPE|07-Nov-2023|0||# h
 f/3-21g pop=full freq||PH3-MULLIKEN-RHF||0,1|P,0.,0.,0.|H,0.,-1.1932,-
 0.7717|H,1.0333,0.5966,-0.7717|H,-1.0333,0.5966,-0.7717||Version=IA32W
 -G09RevB.01|State=1-A'|HF=-340.7038741|RMSD=3.194e-009|RMSF=3.312e-003
 |ZeroPoint=0.0248942|Thermal=0.0277739|Dipole=0.,0.0000063,-0.4620018|
 DipoleDeriv=0.3363371,0.,0.,0.,0.3363446,0.0000043,0.,0.0000054,0.4357
 987,-0.0660393,0.,0.,0.,-0.158181,-0.0480023,0.,-0.2816187,-0.1452699,
 -0.1351489,-0.0398912,0.041563,-0.0399037,-0.0890818,0.023999,0.243894
 3,0.1408066,-0.1452644,-0.1351489,0.0398912,-0.041563,0.0399037,-0.089
 0818,0.023999,-0.2438943,0.1408066,-0.1452644|Polar=21.9481198,0.,21.9
 493546,0.,0.0000564,16.2636557|PolarDeriv=0.,-1.6216894,0.,10.1337806,
 0.,0.,-1.6216506,0.,1.6217793,0.,10.1338944,-0.0000692,5.0942376,0.,5.
 0946133,0.,-0.0000544,19.136383,0.,-4.0036149,0.,-2.9625679,0.,0.,0.10
 15776,0.,-10.0680357,0.,-3.7933094,-0.7736952,-0.9988794,0.,-2.3974263
 ,0.,-6.0504167,-6.3787979,8.2505683,2.8126522,0.3801005,-3.5856063,-0.
 359594,0.6699232,0.7600365,3.9352155,4.2231282,-0.3597403,-3.1702925,0
 .3868822,-2.0476791,-0.605578,-1.3485935,5.2396821,3.0252356,-6.378792
 6,-8.2505683,2.8126522,-0.3801005,-3.5856063,0.359594,-0.6699232,0.760
 0365,-3.9352155,4.2231282,0.3597403,-3.1702925,0.3868822,-2.0476791,0.
 605578,-1.3485935,-5.2396821,3.0252356,-6.3787926|HyperPolar=0.,18.289
 5014,0.,-18.2895507,-10.1862669,0.,-10.1863854,0.,-0.0000442,17.994619
 7|PG=CS [SG(H1P1),X(H2)]|NImag=0||0.25414661,0.,0.25413009,0.,-0.00001
 828,0.24212468,-0.02962182,0.,0.,0.03158883,0.,-0.13979310,-0.07095641
 ,0.,0.16754906,0.,-0.10735111,-0.08070256,0.,0.08318684,0.07190316,-0.
 11226239,-0.04771586,0.06146438,-0.00098350,-0.00241512,0.00008531,0.1
 3357354,-0.04771639,-0.05716849,0.03548735,-0.01991823,-0.01387798,0.0
 1208213,0.05888280,0.06558283,0.09298397,0.05368470,-0.08071106,-0.010
 42100,-0.00611521,0.00439970,-0.07205633,-0.04160277,0.07191143,-0.112
 26239,0.04771586,-0.06146438,-0.00098350,0.00241512,-0.00008531,-0.020
 32764,0.00875182,-0.01050664,0.13357354,0.04771639,-0.05716849,0.03548
 735,0.01991823,-0.01387798,0.01208213,-0.00875182,0.00546364,-0.005966
 71,-0.05888280,0.06558283,-0.09298397,0.05368470,-0.08071106,0.0104210
 0,-0.00611521,0.00439970,0.01050664,-0.00596671,0.00439993,0.07205633,
 -0.04160277,0.07191143||0.,0.00000749,0.00749137,0.,0.00434205,-0.0025
 0035,-0.00377207,-0.00217477,-0.00249551,0.00377207,-0.00217477,-0.002
 49551|||@


      THE ONE-EYED VIEW OF OUR UNIVERSE SAYS YOU MUST NOT LOOK
      FAR AFIELD FOR PROBLEMS.  SUCH PROBLEMS MAY NEVER ARRIVE. 
      INSTEAD, TEND TO THE WOLF WITHIN YOUR FENCES.
      THE PACKS RANGING OUTSIDE MAY NOT EVEN EXIST.

                              -- THE AZHAR BOOK SHAMRA I:4
                                 CHILDREN OF DUNE, BY FRANK HERBERT
 Job cpu time:  0 days  0 hours  0 minutes  2.0 seconds.
 File lengths (MBytes):  RWF=      5 Int=      0 D2E=      0 Chk=      1 Scr=      1
 Normal termination of Gaussian 09 at Tue Nov 07 19:50:32 2023.
